# vtk DataFile Version 3.0
# Dislocation lines converted from MoDELib file
ASCII
DATASET UNSTRUCTURED_GRID
POINTS 672 double
3.957589980500001e+02 1.231080584900000e+02 2.334159345500000e+02
3.963170070900000e+02 1.230503533100000e+02 2.289003069400000e+02
3.967494536400000e+02 1.230612260200000e+02 2.229070083200000e+02
3.974085824400000e+02 1.229203650000000e+02 2.178132647100000e+02
3.980139291700000e+02 1.228552019500000e+02 2.128577669300000e+02
3.975852481300000e+02 1.228846936900000e+02 2.080420789600000e+02
3.972999126000000e+02 1.229379421200000e+02 2.033796065300000e+02
3.985891977700000e+02 1.230979625900000e+02 1.984386155300000e+02
3.994172657000000e+02 1.230957971600000e+02 1.934887630700000e+02
3.986198900900001e+02 1.229880146400000e+02 1.890636649400000e+02
3.974667950300001e+02 1.230027744600000e+02 1.847311072900000e+02
3.968424202800000e+02 1.231514007400000e+02 1.800242585300000e+02
3.961702774300000e+02 1.231824128500000e+02 1.752587808400000e+02
3.950672543100000e+02 1.230048102600000e+02 1.707917705300000e+02
3.935896529200000e+02 1.229364903200000e+02 1.665103071800000e+02
3.911772335200000e+02 1.230033061800000e+02 1.622403458100000e+02
3.883949258800000e+02 1.230500282800000e+02 1.578324165600000e+02
3.863373024100001e+02 1.230730010800000e+02 1.534286684300000e+02
3.849363231600000e+02 1.231326500200000e+02 1.490369881700000e+02
3.831454506400000e+02 1.231392502500000e+02 1.445773420700000e+02
3.805550129500000e+02 1.231341536100000e+02 1.404866240300000e+02
3.776000381400000e+02 1.231897315600000e+02 1.367234792300000e+02
3.745588135600000e+02 1.232293235000000e+02 1.327358879100000e+02
3.718783374000000e+02 1.231583984400000e+02 1.287469789400000e+02
3.695223999900000e+02 1.230826959800000e+02 1.249087162000000e+02
3.663415483900000e+02 1.232251647600000e+02 1.214454089500000e+02
3.617910184300000e+02 1.234341886400000e+02 1.186597519100000e+02
3.568360413400000e+02 1.234967768900000e+02 1.161480122400000e+02
3.524258332700001e+02 1.233981498500000e+02 1.136540226400000e+02
3.489275003300000e+02 1.233354631300000e+02 1.106600544000000e+02
3.458833085100001e+02 1.232793167700000e+02 1.071556961200000e+02
3.423911458000001e+02 1.232694781200000e+02 1.040296536900000e+02
3.381420819500000e+02 1.234006305300000e+02 1.014189036800000e+02
3.333556299600000e+02 1.233924862000000e+02 9.913268463000000e+01
3.285821003300000e+02 1.233709576500000e+02 9.709386908999998e+01
3.241923512800000e+02 1.234360533000000e+02 9.497523357999999e+01
3.197072323200000e+02 1.234948699400000e+02 9.306332275000000e+01
3.149306330900000e+02 1.236292372800000e+02 9.110178687000001e+01
3.100639389300000e+02 1.236264162300000e+02 8.893736945999999e+01
3.051727506500001e+02 1.235606375900000e+02 8.705098913000002e+01
3.001900379600000e+02 1.237106200900000e+02 8.553555473999999e+01
2.945887945300000e+02 1.239236001500000e+02 8.502305178000000e+01
2.890793832200000e+02 1.239823411800000e+02 8.446899584000002e+01
2.839808920700000e+02 1.239205530600000e+02 8.298525130000000e+01
2.783515543200000e+02 1.237919354600000e+02 8.171958169000001e+01
2.723977902200000e+02 1.238111455900000e+02 8.076541580000000e+01
2.662750594400000e+02 1.241205837500000e+02 8.015386223000000e+01
2.600618167700000e+02 1.239787234800000e+02 7.972437006000001e+01
2.539853410200000e+02 1.234794703700000e+02 7.908667589000000e+01
2.478674838300000e+02 1.235932039400000e+02 7.864339089000001e+01
2.419829959600000e+02 1.239021517800000e+02 7.865643905000000e+01
2.361163899300000e+02 1.239456105100000e+02 7.915463176000000e+01
2.298426205800000e+02 1.239309015700000e+02 7.984599639000001e+01
2.233767189700000e+02 1.238387443400000e+02 8.071453714000000e+01
2.171162244800000e+02 1.239012665200000e+02 8.172712534000001e+01
2.113054222800000e+02 1.240203908100000e+02 8.319877763000000e+01
2.054693363100000e+02 1.239968505100000e+02 8.516971819000000e+01
1.995245074100000e+02 1.240124684300000e+02 8.748342584000000e+01
1.939580871700000e+02 1.239997409200000e+02 9.025355934000000e+01
1.882921137400000e+02 1.238723679200000e+02 9.253555040000001e+01
1.821873603300000e+02 1.237761653300000e+02 9.443807753999999e+01
1.758067217900000e+02 1.237730290200000e+02 9.633550458000002e+01
1.694009360500000e+02 1.238085389500000e+02 9.810459782000000e+01
1.638376743600000e+02 1.239358946000000e+02 1.005490405800000e+02
1.591403112400000e+02 1.240289210100000e+02 1.039299183900000e+02
1.545864203400000e+02 1.240727553000000e+02 1.073329630500000e+02
1.501015804600000e+02 1.241319037600000e+02 1.098739132500000e+02
1.456629960800000e+02 1.241077284300000e+02 1.123654827600000e+02
1.414724149500000e+02 1.241871194600000e+02 1.159275005000000e+02
1.375474993300000e+02 1.242838218100000e+02 1.207084514900000e+02
1.335203009300000e+02 1.241650236800000e+02 1.259865196400000e+02
1.296389745900000e+02 1.240280447300000e+02 1.305448212100000e+02
1.258836520400000e+02 1.239405652200000e+02 1.352917128700000e+02
1.217776895300000e+02 1.239726289200000e+02 1.414588992000000e+02
1.180564888800000e+02 1.240759260900000e+02 1.476717574800000e+02
1.156453695200000e+02 1.241078674600000e+02 1.528849231900000e+02
1.133439834000000e+02 1.241349002500000e+02 1.579662085800000e+02
1.110171150200000e+02 1.240753701200000e+02 1.631343352700000e+02
1.100274999200000e+02 1.240798019200000e+02 1.683042100100000e+02
1.091302073400000e+02 1.241643821800000e+02 1.734676614500000e+02
1.073943590000000e+02 1.241778268300000e+02 1.783775901000000e+02
1.056040201500000e+02 1.241726332800000e+02 1.839642249700000e+02
1.039508115500000e+02 1.241067259200000e+02 1.900287164100000e+02
1.030255510800000e+02 1.241027454900000e+02 1.954723324800000e+02
1.028102703300000e+02 1.241474624200000e+02 2.004595649400000e+02
1.022981130600000e+02 1.241010000900000e+02 2.051599216800000e+02
1.019367029900000e+02 1.240835705700000e+02 2.096351232200000e+02
1.024482253100000e+02 1.241623959600000e+02 2.139258100500000e+02
1.027699345700000e+02 1.241355753800000e+02 2.182806771500000e+02
1.023712854400000e+02 1.240075803000000e+02 2.229566667300000e+02
1.025256074000000e+02 1.240295268800000e+02 2.274635099400000e+02
1.038423103900000e+02 1.241538066900000e+02 2.316186224100000e+02
1.051720788600000e+02 1.241732714200000e+02 2.360058958500000e+02
1.051670372500000e+02 1.240900065300000e+02 2.411549048600000e+02
1.048094325500000e+02 1.241366164200000e+02 2.466746293100001e+02
1.060393926600000e+02 1.241495498000000e+02 2.514146954200000e+02
1.075213615700000e+02 1.240889236400000e+02 2.555709599500000e+02
1.084902917900000e+02 1.240663317100000e+02 2.602045636200000e+02
1.101899206500000e+02 1.239974206900000e+02 2.648535975400000e+02
1.121118471100000e+02 1.239671549100000e+02 2.690512706500000e+02
1.141495787000000e+02 1.239380840900000e+02 2.731619013800000e+02
1.167877813900000e+02 1.240637753500000e+02 2.772418325300000e+02
1.196750835500000e+02 1.241681799300000e+02 2.811885816500000e+02
1.225151569800000e+02 1.240144401200000e+02 2.849594531100000e+02
1.250956325000000e+02 1.238796327200000e+02 2.892202769900001e+02
1.271413330600000e+02 1.238130129200000e+02 2.939798318100000e+02
1.297623645000000e+02 1.237187256200000e+02 2.974725176400000e+02
1.335842456900000e+02 1.236881299500000e+02 3.000801437900001e+02
1.371247867900000e+02 1.236967630800000e+02 3.035311632200001e+02
1.402178786600000e+02 1.236967376600000e+02 3.072088049200000e+02
1.435117061500000e+02 1.237662300800000e+02 3.103631821400000e+02
1.465627006900000e+02 1.237763171300000e+02 3.132910001700001e+02
1.499184294600000e+02 1.236794914400000e+02 3.161306132700000e+02
1.536816736600000e+02 1.236765574700000e+02 3.189447063000000e+02
1.567996426600000e+02 1.236932637700000e+02 3.217966700500000e+02
1.606599636500000e+02 1.235768315100000e+02 3.240001366900000e+02
1.659034654000000e+02 1.235032525400000e+02 3.259298965700000e+02
1.711401977900000e+02 1.235157382200000e+02 3.285024232600001e+02
1.760930142500000e+02 1.235956665500000e+02 3.311492346800001e+02
1.809635272100000e+02 1.237106305100000e+02 3.333775687800000e+02
1.859284273800000e+02 1.236504848000000e+02 3.354636646700000e+02
1.906551678000000e+02 1.234544081900000e+02 3.376403414100000e+02
1.948090834000000e+02 1.233685814000000e+02 3.395928067100000e+02
1.990901742600000e+02 1.233374619000000e+02 3.413044500800000e+02
2.043740049000000e+02 1.232838994600000e+02 3.426297628000000e+02
2.101561848100000e+02 1.232970239600000e+02 3.437119686100000e+02
2.154765682700000e+02 1.232871665000000e+02 3.448570416900000e+02
2.204756268300000e+02 1.232695777600000e+02 3.455547454700000e+02
2.255767103000000e+02 1.232259470700000e+02 3.462636923300001e+02
2.308962045500000e+02 1.230927715900000e+02 3.473318352600000e+02
2.365732579000000e+02 1.232345944600000e+02 3.481781911600000e+02
2.422432929000000e+02 1.233694917000000e+02 3.489771295200000e+02
2.477586725600000e+02 1.230940474500000e+02 3.497406035200000e+02
2.534570788700000e+02 1.229147321400000e+02 3.500014590300000e+02
2.592169145800000e+02 1.229055371100000e+02 3.500305623700000e+02
2.647999353200000e+02 1.231015996400000e+02 3.497591461500000e+02
2.699554891100000e+02 1.233185484600000e+02 3.488402431000000e+02
2.754372645800000e+02 1.231371875300000e+02 3.480056022500000e+02
2.816250894200000e+02 1.229366432300000e+02 3.471849452900000e+02
2.877741266100000e+02 1.228548595300000e+02 3.460570859000001e+02
2.933069103300000e+02 1.229190167400000e+02 3.445388689400000e+02
2.984471618700000e+02 1.231778313800000e+02 3.420358984000001e+02
3.040517209200000e+02 1.231726353500000e+02 3.397330271400000e+02
3.098431239500000e+02 1.230717712000000e+02 3.381694803500001e+02
3.156865561900000e+02 1.231538001900000e+02 3.360008002499999e+02
3.213880817400000e+02 1.230138624900000e+02 3.333806234300000e+02
3.267925160600000e+02 1.229181199400000e+02 3.303627428700000e+02
3.325554767100000e+02 1.229843726600000e+02 3.267132664300000e+02
3.383531868000000e+02 1.230007748000000e+02 3.233007494600000e+02
[...]
POINT_DATA 672
VECTORS PK_force double
0.000000000000000e+00 0.000000000000000e+00 0.000000000000000e+00
0.000000000000000e+00 0.000000000000000e+00 0.000000000000000e+00
0.000000000000000e+00 0.000000000000000e+00 0.000000000000000e+00
0.000000000000000e+00 0.000000000000000e+00 0.000000000000000e+00
0.000000000000000e+00 0.000000000000000e+00 0.000000000000000e+00
0.000000000000000e+00 0.000000000000000e+00 0.000000000000000e+00
0.000000000000000e+00 0.000000000000000e+00 0.000000000000000e+00
0.000000000000000e+00 0.000000000000000e+00 0.000000000000000e+00
0.000000000000000e+00 0.000000000000000e+00 0.000000000000000e+00
0.000000000000000e+00 0.000000000000000e+00 0.000000000000000e+00
0.000000000000000e+00 0.000000000000000e+00 0.000000000000000e+00
0.000000000000000e+00 0.000000000000000e+00 0.000000000000000e+00
0.000000000000000e+00 0.000000000000000e+00 0.000000000000000e+00
0.000000000000000e+00 0.000000000000000e+00 0.000000000000000e+00
0.000000000000000e+00 0.000000000000000e+00 0.000000000000000e+00
0.000000000000000e+00 0.000000000000000e+00 0.000000000000000e+00
0.000000000000000e+00 0.000000000000000e+00 0.000000000000000e+00
0.000000000000000e+00 0.000000000000000e+00 0.000000000000000e+00
0.000000000000000e+00 0.000000000000000e+00 0.000000000000000e+00
0.000000000000000e+00 0.000000000000000e+00 0.000000000000000e+00
0.000000000000000e+00 0.000000000000000e+00 0.000000000000000e+00
0.000000000000000e+00 0.000000000000000e+00 0.000000000000000e+00
0.000000000000000e+00 0.000000000000000e+00 0.000000000000000e+00
0.000000000000000e+00 0.000000000000000e+00 0.000000000000000e+00
0.000000000000000e+00 0.000000000000000e+00 0.000000000000000e+00
0.000000000000000e+00 0.000000000000000e+00 0.000000000000000e+00
0.000000000000000e+00 0.000000000000000e+00 0.000000000000000e+00
0.000000000000000e+00 0.000000000000000e+00 0.000000000000000e+00
0.000000000000000e+00 0.000000000000000e+00 0.000000000000000e+00
0.000000000000000e+00 0.000000000000000e+00 0.000000000000000e+00
0.000000000000000e+00 0.000000000000000e+00 0.000000000000000e+00
0.000000000000000e+00 0.000000000000000e+00 0.000000000000000e+00
0.000000000000000e+00 0.000000000000000e+00 0.000000000000000e+00
0.000000000000000e+00 0.000000000000000e+00 0.000000000000000e+00
0.000000000000000e+00 0.000000000000000e+00 0.000000000000000e+00
0.000000000000000e+00 0.000000000000000e+00 0.000000000000000e+00
0.000000000000000e+00 0.000000000000000e+00 0.000000000000000e+00
0.000000000000000e+00 0.000000000000000e+00 0.000000000000000e+00
0.000000000000000e+00 0.000000000000000e+00 0.000000000000000e+00
0.000000000000000e+00 0.000000000000000e+00 0.000000000000000e+00
0.000000000000000e+00 0.000000000000000e+00 0.000000000000000e+00
0.000000000000000e+00 0.000000000000000e+00 0.000000000000000e+00
0.000000000000000e+00 0.000000000000000e+00 0.000000000000000e+00
0.000000000000000e+00 0.000000000000000e+00 0.000000000000000e+00
0.000000000000000e+00 0.000000000000000e+00 0.000000000000000e+00
0.000000000000000e+00 0.000000000000000e+00 0.000000000000000e+00
0.000000000000000e+00 0.000000000000000e+00 0.000000000000000e+00
0.000000000000000e+00 0.000000000000000e+00 0.000000000000000e+00
0.000000000000000e+00 0.000000000000000e+00 0.000000000000000e+00
0.000000000000000e+00 0.000000000000000e+00 0.000000000000000e+00
0.000000000000000e+00 0.000000000000000e+00 0.000000000000000e+00
0.000000000000000e+00 0.000000000000000e+00 0.000000000000000e+00
0.000000000000000e+00 0.000000000000000e+00 0.000000000000000e+00
0.000000000000000e+00 0.000000000000000e+00 0.000000000000000e+00
0.000000000000000e+00 0.000000000000000e+00 0.000000000000000e+00
0.000000000000000e+00 0.000000000000000e+00 0.000000000000000e+00
0.000000000000000e+00 0.000000000000000e+00 0.000000000000000e+00
0.000000000000000e+00 0.000000000000000e+00 0.000000000000000e+00
0.000000000000000e+00 0.000000000000000e+00 0.000000000000000e+00
0.000000000000000e+00 0.000000000000000e+00 0.000000000000000e+00
0.000000000000000e+00 0.000000000000000e+00 0.000000000000000e+00
0.000000000000000e+00 0.000000000000000e+00 0.000000000000000e+00
0.000000000000000e+00 0.000000000000000e+00 0.000000000000000e+00
0.000000000000000e+00 0.000000000000000e+00 0.000000000000000e+00
0.000000000000000e+00 0.000000000000000e+00 0.000000000000000e+00
0.000000000000000e+00 0.000000000000000e+00 0.000000000000000e+00
0.000000000000000e+00 0.000000000000000e+00 0.000000000000000e+00
0.000000000000000e+00 0.000000000000000e+00 0.000000000000000e+00
0.000000000000000e+00 0.000000000000000e+00 0.000000000000000e+00
0.000000000000000e+00 0.000000000000000e+00 0.000000000000000e+00
0.000000000000000e+00 0.000000000000000e+00 0.000000000000000e+00
0.000000000000000e+00 0.000000000000000e+00 0.000000000000000e+00
0.000000000000000e+00 0.000000000000000e+00 0.000000000000000e+00
0.000000000000000e+00 0.000000000000000e+00 0.000000000000000e+00
0.000000000000000e+00 0.000000000000000e+00 0.000000000000000e+00
0.000000000000000e+00 0.000000000000000e+00 0.000000000000000e+00
0.000000000000000e+00 0.000000000000000e+00 0.000000000000000e+00
0.000000000000000e+00 0.000000000000000e+00 0.000000000000000e+00
0.000000000000000e+00 0.000000000000000e+00 0.000000000000000e+00
0.000000000000000e+00 0.000000000000000e+00 0.000000000000000e+00
0.000000000000000e+00 0.000000000000000e+00 0.000000000000000e+00
0.000000000000000e+00 0.000000000000000e+00 0.000000000000000e+00
0.000000000000000e+00 0.000000000000000e+00 0.000000000000000e+00
0.000000000000000e+00 0.000000000000000e+00 0.000000000000000e+00
0.000000000000000e+00 0.000000000000000e+00 0.000000000000000e+00
0.000000000000000e+00 0.000000000000000e+00 0.000000000000000e+00
0.000000000000000e+00 0.000000000000000e+00 0.000000000000000e+00
0.000000000000000e+00 0.000000000000000e+00 0.000000000000000e+00
0.000000000000000e+00 0.000000000000000e+00 0.000000000000000e+00
0.000000000000000e+00 0.000000000000000e+00 0.000000000000000e+00
0.000000000000000e+00 0.000000000000000e+00 0.000000000000000e+00
0.000000000000000e+00 0.000000000000000e+00 0.000000000000000e+00
0.000000000000000e+00 0.000000000000000e+00 0.000000000000000e+00
0.000000000000000e+00 0.000000000000000e+00 0.000000000000000e+00
0.000000000000000e+00 0.000000000000000e+00 0.000000000000000e+00
0.000000000000000e+00 0.000000000000000e+00 0.000000000000000e+00
0.000000000000000e+00 0.000000000000000e+00 0.000000000000000e+00
0.000000000000000e+00 0.000000000000000e+00 0.000000000000000e+00
0.000000000000000e+00 0.000000000000000e+00 0.000000000000000e+00
0.000000000000000e+00 0.000000000000000e+00 0.000000000000000e+00
0.000000000000000e+00 0.000000000000000e+00 0.000000000000000e+00
0.000000000000000e+00 0.000000000000000e+00 0.000000000000000e+00
0.000000000000000e+00 0.000000000000000e+00 0.000000000000000e+00
0.000000000000000e+00 0.000000000000000e+00 0.000000000000000e+00
0.000000000000000e+00 0.000000000000000e+00 0.000000000000000e+00
0.000000000000000e+00 0.000000000000000e+00 0.000000000000000e+00
0.000000000000000e+00 0.000000000000000e+00 0.000000000000000e+00
0.000000000000000e+00 0.000000000000000e+00 0.000000000000000e+00
0.000000000000000e+00 0.000000000000000e+00 0.000000000000000e+00
0.000000000000000e+00 0.000000000000000e+00 0.000000000000000e+00
0.000000000000000e+00 0.000000000000000e+00 0.000000000000000e+00
0.000000000000000e+00 0.000000000000000e+00 0.000000000000000e+00
0.000000000000000e+00 0.000000000000000e+00 0.000000000000000e+00
0.000000000000000e+00 0.000000000000000e+00 0.000000000000000e+00
0.000000000000000e+00 0.000000000000000e+00 0.000000000000000e+00
0.000000000000000e+00 0.000000000000000e+00 0.000000000000000e+00
0.000000000000000e+00 0.000000000000000e+00 0.000000000000000e+00
0.000000000000000e+00 0.000000000000000e+00 0.000000000000000e+00
0.000000000000000e+00 0.000000000000000e+00 0.000000000000000e+00
0.000000000000000e+00 0.000000000000000e+00 0.000000000000000e+00
0.000000000000000e+00 0.000000000000000e+00 0.000000000000000e+00
0.000000000000000e+00 0.000000000000000e+00 0.000000000000000e+00
0.000000000000000e+00 0.000000000000000e+00 0.000000000000000e+00
0.000000000000000e+00 0.000000000000000e+00 0.000000000000000e+00
0.000000000000000e+00 0.000000000000000e+00 0.000000000000000e+00
0.000000000000000e+00 0.000000000000000e+00 0.000000000000000e+00
0.000000000000000e+00 0.000000000000000e+00 0.000000000000000e+00
0.000000000000000e+00 0.000000000000000e+00 0.000000000000000e+00
0.000000000000000e+00 0.000000000000000e+00 0.000000000000000e+00
0.000000000000000e+00 0.000000000000000e+00 0.000000000000000e+00
0.000000000000000e+00 0.000000000000000e+00 0.000000000000000e+00
0.000000000000000e+00 0.000000000000000e+00 0.000000000000000e+00
0.000000000000000e+00 0.000000000000000e+00 0.000000000000000e+00
0.000000000000000e+00 0.000000000000000e+00 0.000000000000000e+00
0.000000000000000e+00 0.000000000000000e+00 0.000000000000000e+00
0.000000000000000e+00 0.000000000000000e+00 0.000000000000000e+00
0.000000000000000e+00 0.000000000000000e+00 0.000000000000000e+00
0.000000000000000e+00 0.000000000000000e+00 0.000000000000000e+00
0.000000000000000e+00 0.000000000000000e+00 0.000000000000000e+00
0.000000000000000e+00 0.000000000000000e+00 0.000000000000000e+00
0.000000000000000e+00 0.000000000000000e+00 0.000000000000000e+00
0.000000000000000e+00 0.000000000000000e+00 0.000000000000000e+00
0.000000000000000e+00 0.000000000000000e+00 0.000000000000000e+00
0.000000000000000e+00 0.000000000000000e+00 0.000000000000000e+00
0.000000000000000e+00 0.000000000000000e+00 0.000000000000000e+00
0.000000000000000e+00 0.000000000000000e+00 0.000000000000000e+00
0.000000000000000e+00 0.000000000000000e+00 0.000000000000000e+00
0.000000000000000e+00 0.000000000000000e+00 0.000000000000000e+00
0.000000000000000e+00 0.000000000000000e+00 0.000000000000000e+00
0.000000000000000e+00 0.000000000000000e+00 0.000000000000000e+00
0.000000000000000e+00 0.000000000000000e+00 0.000000000000000e+00
0.000000000000000e+00 0.000000000000000e+00 0.000000000000000e+00
0.000000000000000e+00 0.000000000000000e+00 0.000000000000000e+00
0.000000000000000e+00 0.000000000000000e+00 0.000000000000000e+00
0.000000000000000e+00 0.000000000000000e+00 0.000000000000000e+00
0.000000000000000e+00 0.000000000000000e+00 0.000000000000000e+00
0.000000000000000e+00 0.000000000000000e+00 0.000000000000000e+00
0.000000000000000e+00 0.000000000000000e+00 0.000000000000000e+00
0.000000000000000e+00 0.000000000000000e+00 0.000000000000000e+00
0.000000000000000e+00 0.000000000000000e+00 0.000000000000000e+00
0.000000000000000e+00 0.000000000000000e+00 0.000000000000000e+00
0.000000000000000e+00 0.000000000000000e+00 0.000000000000000e+00
0.000000000000000e+00 0.000000000000000e+00 0.000000000000000e+00
0.000000000000000e+00 0.000000000000000e+00 0.000000000000000e+00
0.000000000000000e+00 0.000000000000000e+00 0.000000000000000e+00
0.000000000000000e+00 0.000000000000000e+00 0.000000000000000e+00
0.000000000000000e+00 0.000000000000000e+00 0.000000000000000e+00
0.000000000000000e+00 0.000000000000000e+00 0.000000000000000e+00
 7.724465131609457e-04 -1.376070298596226e-03  1.130382231703567e-04
-4.537344529589917e-05 -9.028356476269496e-04  5.930405077327974e-06
2.466847250070344e-03 1.582911022441325e-04 3.028125805287415e-04
-1.763946936618179e-03 -7.548581125922860e-05 -5.638998167962042e-04
 9.213569814924928e-04 -9.925848010814027e-04  2.746341574948229e-04
2.448519940619346e-03 3.432135033418537e-05 7.813855442394881e-04
1.155866095727449e-03 4.837300455957407e-04 8.427909134675833e-05
 1.286302162915349e-03 -6.886667728149223e-04  9.156381039842959e-05
 9.668133139270684e-04 -1.286484386553881e-03  6.742656024159709e-05
 1.111270525009408e-03 -1.425554889651262e-04  1.477402430953920e-04
 1.651254064930345e-03 -1.066350022675369e-04  2.166206055863294e-04
1.153988102760186e-03 6.192034840948593e-04 1.322024056545294e-04
2.801776671832852e-03 4.538935635574648e-04 3.362869547098220e-04
2.469473719138216e-04 9.519037154321194e-04 1.764905132622988e-05
8.523213507213816e-04 2.838597779673691e-05 1.037434075246200e-04
 2.627026844155244e-03  9.084651963480037e-04 -2.282881256300435e-04
 1.419877051088039e-03  1.157882750878667e-03 -1.193030772492193e-04
 2.995902864148885e-03  4.587976795157879e-04 -2.638783952742730e-04
 7.576820585727079e-04 -4.024561845115526e-04 -5.096518537984504e-05
 4.563967146305369e-03  7.638864620362066e-04 -2.705830970011690e-04
 3.201226307266217e-03  8.603987227035508e-04 -1.860834003635691e-04
1.528088509573669e-03 4.340450284093772e-04 4.127912686519566e-04
 2.834377229243484e-03 -2.648708991849126e-04  7.310144386161250e-04
 5.835120881664063e-04 -4.920484796284815e-04  1.363239991361524e-04
3.403025265769775e-04 2.819865536891731e-04 5.680633693340400e-05
-2.652374509443895e-03 -9.089460738380140e-04 -4.433219026740776e-04
6.529610918037824e-04 3.374817574644362e-04 1.090871598500939e-04
-1.373316749854964e-03 -5.219533801692040e-04  2.601765425201525e-04
-3.314078880095682e-03  4.478472746075734e-05  5.960859127480475e-04
 3.946575132763909e-04  4.572131689857416e-04 -8.225125234008419e-05
-1.216933983768503e-03 -4.294574078654480e-04  3.224196799763000e-04
-5.254163712731060e-04  7.028925979921455e-04  1.422322886768446e-04
-8.412150235506465e-04 -3.767574584796601e-04  2.226029273455255e-04
 3.842261883690725e-04  1.961500954129571e-04 -4.477477013804053e-05
 7.351406177607005e-04 -1.076985850940481e-04 -1.009189170320765e-04
-1.020722628492508e-03 -5.821761966727388e-04  1.170181541096169e-04
-4.405021135895098e-04  6.021725761429724e-04  6.604898998686331e-05
-8.521612480839084e-04 -1.198667680768945e-03  1.123918546720223e-04
 1.082704581800697e-04 -1.322301716122262e-05 -1.535696791703963e-05
-1.749057307122275e-03 -6.176932877252286e-04  4.564472508876691e-04
-2.378483103321448e-03 -3.672479075061498e-04  6.019117589719651e-04
-6.315476289625651e-04  7.453173038387729e-04  1.263129729810899e-04
-2.867074836588145e-05  4.224549878281176e-05  9.220615585943656e-06
-2.659825827036578e-03  8.487731311406907e-04  9.044043807578332e-04
-1.766169672992242e-03 -3.804616056776431e-04  6.156044469845657e-04
 4.073911547537564e-04  7.983130816638579e-04 -2.176737139932862e-04
-1.180430885625821e-03  8.508429068721447e-04  6.802272708594671e-04
 1.322173232369755e-04  6.324570448759469e-05 -7.370975804783621e-05
 6.644444744283068e-04  3.434703989028554e-04 -4.157601393518498e-04
 1.297974846427940e-03  3.077722743172712e-04 -8.160261566735522e-04
 7.876402188156039e-04  6.788370720672519e-04 -4.899671892004853e-04
 8.938036801119814e-04 -2.079348966369626e-04 -4.187088412261542e-04
 2.751552089950608e-03  1.483354780409170e-04 -1.284871502844028e-03
 9.221340063137219e-04  3.706780115942484e-04 -4.289275876573336e-04
 9.339553360974678e-04  3.501086512409644e-04 -2.931835562109166e-04
 1.253530498128106e-03 -1.216026837610245e-05 -4.000508826292698e-04
 6.498440557473832e-04 -2.431458514867799e-04 -2.106076434044841e-04
 2.206033150706059e-04  8.404987504605689e-05 -8.846389543647215e-05
-1.459037452072235e-03 -7.595598269964514e-05  5.857973240547654e-04
 4.571767170539170e-04  3.139691717817098e-04 -1.831250579746667e-04
-4.226676407746473e-04 -3.212621441715338e-04  2.680535626700167e-04
-1.917559180552911e-03  9.508484048753835e-05  1.214171427202146e-03
 1.385258359930730e-04  1.085030296361142e-04 -8.785634794721347e-05
-7.050203525183719e-04  1.769539888271873e-06  5.536368756335178e-04
-9.067556495770629e-04  4.545120537514219e-06  7.120886530349177e-04
-2.158619836092303e-04 -3.173599418943152e-04  1.648165409471607e-04
-8.444206964398564e-04  4.944386005330657e-04  6.489252668148581e-04
-1.192531843003456e-04 -2.444811630106612e-04  8.852367343412493e-05
-5.605838792802002e-04 -5.485764906297402e-05  4.269970053170994e-04
-2.208417828894861e-03  6.002834225115437e-04  1.473344277373421e-03
-7.899227819359777e-04  1.376796919137969e-04  5.283660922476513e-04
-9.634661167843193e-04  5.888652964299792e-04  6.369618032489056e-04
-1.294698719791250e-03 -4.173544440051000e-04  8.029215599603222e-04
-2.926760978274297e-03  9.577259776494504e-04  1.777565510361729e-03
-2.636641269905992e-03  7.851924822681510e-04  1.602892042257667e-03
 1.840081087005808e-04  1.428890533449164e-04 -1.631230546662638e-04
-3.395234551461783e-03  8.015259195261781e-04  3.151302754119170e-03
-1.334292205941638e-03 -4.235385440476027e-04  1.208048889824487e-03
-4.415259127734210e-04  1.121824565739380e-04  7.296755046819421e-04
-1.800306421949279e-03 -2.860967988998737e-04  2.919435928587577e-03
 1.906601627213065e-04 -2.393785319423542e-04 -3.294162199439567e-04
 3.499582739835450e-04 -5.685043043450629e-05 -6.917888106600865e-04
-7.402018527311589e-06 -8.047811089358728e-04 -5.451603596634164e-06
-1.139404030958335e-04 -6.869813763308643e-05  2.230614889928092e-04
 8.262795090503236e-05 -6.549756691339493e-04 -1.202122672725754e-04
 1.453187757341599e-03 -6.009989045207336e-04 -2.545955136162931e-03
 6.298741151048761e-04  4.387701577412537e-05 -1.115563339040967e-03
 3.594250214507501e-04  1.143297449965384e-04 -4.223676563495034e-04
 2.129107073438834e-03 -8.434541968731701e-05 -2.486011030661740e-03
 1.312378051621194e-04 -5.467332889042960e-04 -1.418988399742404e-04
 1.843655039873504e-03  3.754843386654174e-04 -1.607575829871386e-03
 1.189652035078268e-03  5.036287563755385e-04 -1.041504784520310e-03
 1.720505618847826e-04  2.612993963357635e-04 -1.536446561880937e-04
 8.202994779860082e-04 -3.882170299019060e-04 -9.151506355510316e-04
-6.294733292290160e-04  5.262656431852212e-04  7.015405558019972e-04
 1.325994981674748e-03  3.360274970376355e-04 -1.482352331854133e-03
-1.473983250697764e-04  9.501156891375338e-04  2.876241900363780e-04
-1.117011895427284e-03  2.562767103342922e-04  1.830840239302429e-03
 5.464185977770313e-04 -4.507295000844013e-04 -9.119531789166631e-04
-1.165861589277532e-04  1.546307524398573e-04  2.435351453003553e-04
-6.822084643712520e-04  9.835961867373527e-05  1.427928346888504e-03
-7.949392481368649e-05  7.958193658260177e-04  1.635943148499783e-04
-4.317324387054757e-04 -2.126514608506970e-04  1.013071376727007e-03
-1.808888887343607e-04  1.545919744388119e-04  4.218872733626142e-04
-2.016888475346847e-05  1.710235713360254e-04  4.541601613849224e-05
 7.735425009543065e-04  3.481810473968719e-04 -1.592058837482992e-03
 1.929306063944821e-04  2.742597137380255e-04 -3.913197092601858e-04
-4.362570904502746e-04 -1.973778397679687e-04  8.978470815796678e-04
 4.155287456025950e-04 -3.445351109134683e-04 -9.853808155442169e-04
 3.759518507547710e-04  1.314483024988546e-04 -8.778952449265994e-04
 7.152420121804096e-04  3.087188027148514e-04 -1.668376818148194e-03
-1.061988500651340e-04  6.166146424015594e-04  3.008470152238863e-04
 2.181728708218072e-04 -3.719131813299047e-05 -5.338274338692994e-04
 3.895307697081842e-04 -3.761717258883683e-04 -9.743271016996397e-04
 2.429586635862360e-04  4.251320687127789e-04 -5.468468431969336e-04
-1.416127910947754e-05  3.590362035629571e-05  3.179485071320799e-05
-1.607409950900812e-04  6.230490803191904e-04  3.606141799928752e-04
 1.797249446934619e-05 -7.745750940532602e-04 -1.959114896311780e-05
-3.490824199519367e-04  1.919862421839116e-04  8.984398428886102e-04
 1.524397729510441e-04  4.627025491598137e-04 -4.113950739044612e-04
 1.176752099308376e-03 -1.970804089873700e-04 -3.888638313565676e-03
-2.254467778180279e-04  1.119929283694864e-04  7.523476487376623e-04
-2.845373470374941e-05 -7.845491738734654e-04  1.590840136324695e-05
 7.725734538919689e-05  1.451866375916003e-04 -7.840254024972346e-04
 2.985346365691981e-05 -3.137197144544812e-04 -4.566462616699170e-04
 3.687477109312836e-04 -3.802163504207840e-04 -4.188120580429438e-03
-1.917063552554715e-04 -1.295057464373567e-04  1.892555941024166e-03
 1.682755840610978e-04 -5.536643914211790e-04 -1.731995189239320e-03
 1.171692323913366e-04  1.078819045691570e-04 -1.153667624117698e-03