# vtk DataFile Version 3.0
# Dislocation lines converted from MoDELib file
ASCII
DATASET UNSTRUCTURED_GRID
POINTS 124 double
8.927754584000002e+01 1.239640958700000e+02 1.860455295400000e+02
9.128792768000001e+01 1.238228337500000e+02 2.052544995800000e+02
9.207801252000002e+01 1.236974406500000e+02 2.357840786000000e+02
9.816363996000000e+01 1.236727019400000e+02 2.623287158000000e+02
1.078743475400000e+02 1.235985805100000e+02 2.869290435500000e+02
1.219432001700000e+02 1.235266755600000e+02 3.080685029700001e+02
1.420851539200000e+02 1.234139584500000e+02 3.248051181200000e+02
1.681080170800000e+02 1.231293807600000e+02 3.370885962700000e+02
1.982258653100000e+02 1.232371696700000e+02 3.452589523200000e+02
2.325204498900000e+02 1.237114844900000e+02 3.490792731100000e+02
2.683318491200000e+02 1.233854141900000e+02 3.491274833900001e+02
3.028911094400000e+02 1.226679150600000e+02 3.453629990000000e+02
3.374545315300000e+02 1.225014430200000e+02 3.357844643300000e+02
3.697212537900000e+02 1.224718825300000e+02 3.183367034200000e+02
3.937854452200000e+02 1.224428279800000e+02 2.932393573600000e+02
4.078112242400000e+02 1.225482255100000e+02 2.632114459800000e+02
4.146200721900000e+02 1.225911065200000e+02 2.329229601400000e+02
4.155981509600000e+02 1.226584157700000e+02 2.052282957300000e+02
4.114177566400001e+02 1.227811028800000e+02 1.788500364500000e+02
4.030529820000000e+02 1.228630389800000e+02 1.537837766200000e+02
3.901688711100000e+02 1.229797940800000e+02 1.312150816400000e+02
3.723148208500000e+02 1.231388500200000e+02 1.120780548800000e+02
3.489504559400000e+02 1.232153606400000e+02 9.754867024000001e+01
3.211963589300000e+02 1.233200818700000e+02 8.736292068000000e+01
2.889723039900000e+02 1.235305578200000e+02 8.168722251000000e+01
2.529150398300000e+02 1.232774111400000e+02 8.014027539000000e+01
2.171729996800000e+02 1.230889930900000e+02 8.121077133000000e+01
1.814458290400000e+02 1.236400530600000e+02 8.646612978000000e+01
1.475473634400000e+02 1.239820228700000e+02 9.896472014000000e+01
1.203262449600000e+02 1.238989856300000e+02 1.208141859000000e+02
1.029146357700000e+02 1.238898581200000e+02 1.467202840900000e+02
8.961260948000000e+01 1.239405521833333e+02 1.892470245466667e+02
9.028273675999999e+01 1.238934648100000e+02 1.956500145600000e+02
9.095286404000002e+01 1.238463774366667e+02 2.020530045733333e+02
9.155039416166667e+01 1.239517229116666e+02 1.794913219650000e+02
9.609609080500002e+01 1.239269769950000e+02 1.663829068150000e+02
1.006417874483334e+02 1.239022310783333e+02 1.532744916650000e+02
9.141960848666669e+01 1.238019349000000e+02 2.103427627500000e+02
9.168297010000001e+01 1.237601372000000e+02 2.205192890900000e+02
9.194633171333334e+01 1.237183395000000e+02 2.306958154300000e+02
9.309228375999999e+01 1.236933175316667e+02 2.402081848000001e+02
9.512082624000000e+01 1.236850712950000e+02 2.490563972000000e+02
9.714936872000000e+01 1.236768250583333e+02 2.579046096000000e+02
9.978209122333334e+01 1.236603483683333e+02 2.664287704250000e+02
1.030189937500000e+02 1.236356412250000e+02 2.746288796750000e+02
1.062558962766667e+02 1.236109340816667e+02 2.828289889250000e+02
1.102191563116667e+02 1.235865963516667e+02 2.904522867866667e+02
1.149087738550000e+02 1.235626280350000e+02 2.974987732600000e+02
1.195983913983333e+02 1.235386597183333e+02 3.045452597333334e+02
1.253001924616667e+02 1.235078893750000e+02 3.108579388283334e+02
1.320141770450000e+02 1.234703170050000e+02 3.164368105450000e+02
1.387281616283333e+02 1.234327446350000e+02 3.220156822616667e+02
1.464222977800000e+02 1.233665288350000e+02 3.268523644783333e+02
1.550965855000000e+02 1.232716696050000e+02 3.309468571950000e+02
1.637708732200000e+02 1.231768103750000e+02 3.350413499116667e+02
1.731276584516667e+02 1.231473455783333e+02 3.384503222783333e+02
1.831669411950000e+02 1.231832752150000e+02 3.411737742950000e+02
1.932062239383333e+02 1.232192048516666e+02 3.438972263116667e+02
2.039416294066667e+02 1.233162221400000e+02 3.458956724516667e+02
2.153731576000000e+02 1.234743270800000e+02 3.471691127149999e+02
2.268046857933334e+02 1.236324320200000e+02 3.484425529783334e+02
2.384890164283333e+02 1.236571394400000e+02 3.490873081566667e+02
2.504261495050000e+02 1.235484493400000e+02 3.491033782500000e+02
2.623632825816666e+02 1.234397592400000e+02 3.491194483433333e+02
2.740917258400000e+02 1.232658310016667e+02 3.485000693250000e+02
2.856114792800000e+02 1.230266646250000e+02 3.472452411950001e+02
2.971312327200000e+02 1.227874982483333e+02 3.459904130650000e+02
3.086516797883334e+02 1.226401697200000e+02 3.437665765550000e+02
3.201728204850000e+02 1.225846790400000e+02 3.405737316650000e+02
3.316939611816667e+02 1.225291883600000e+02 3.373808867750000e+02
3.428323185733334e+02 1.224965162716667e+02 3.328765041783334e+02
3.535878926600000e+02 1.224866627750000e+02 3.270605838750000e+02
3.643434667466667e+02 1.224768092783333e+02 3.212446635716667e+02
3.737319523616667e+02 1.224670401050000e+02 3.141538124100001e+02
3.817533495050000e+02 1.224573552550000e+02 3.057880303900000e+02
3.897747466483334e+02 1.224476704050000e+02 2.974222483700000e+02
3.961230750566667e+02 1.224603942350000e+02 2.882347054633333e+02
4.007983347300000e+02 1.224955267450000e+02 2.782254016700000e+02
4.054735944033333e+02 1.225306592550000e+02 2.682160978766667e+02
4.089460322316667e+02 1.225553723450000e+02 2.581633650066667e+02
4.112156482150000e+02 1.225696660150000e+02 2.480672030600000e+02
4.134852641983334e+02 1.225839596850000e+02 2.379710411133333e+02
4.147830853183334e+02 1.226023247283333e+02 2.283071827383333e+02
4.151091115750001e+02 1.226247611450000e+02 2.190756279350000e+02
4.154351378316667e+02 1.226471975616667e+02 2.098440731316667e+02
4.149014185733334e+02 1.226788636216667e+02 2.008319191833334e+02
4.135079538000000e+02 1.227197593250000e+02 1.920391660900000e+02
4.121144890266666e+02 1.227606550283333e+02 1.832464129966667e+02
4.100236275333333e+02 1.227947588966667e+02 1.746723264783334e+02
4.072353693200000e+02 1.228220709300000e+02 1.663169065350000e+02
4.044471111066667e+02 1.228493829633333e+02 1.579614865916667e+02
4.009056301850000e+02 1.228824981633334e+02 1.500223274566667e+02
3.966109265550000e+02 1.229214165300000e+02 1.424994291300000e+02
3.923162229250000e+02 1.229603348966667e+02 1.349765308033333e+02
3.871931960666666e+02 1.230063034033333e+02 1.280255771800000e+02
3.812418459800001e+02 1.230593220500000e+02 1.216465682600000e+02
3.752904958933333e+02 1.231123406966667e+02 1.152675593400000e+02
3.684207600316667e+02 1.231516017900000e+02 1.096564907733333e+02
3.606326383950000e+02 1.231771053300000e+02 1.048133625600000e+02
3.528445167583333e+02 1.232026088700000e+02 9.997023434666669e+01
3.443247731050000e+02 1.232328141783333e+02 9.585104531333337e+01
3.350734074350000e+02 1.232677212550000e+02 9.245579546000000e+01
3.258220417650001e+02 1.233026283316667e+02 8.906054560666668e+01
3.158256831066667e+02 1.233551611950000e+02 8.641697098500001e+01
3.050843314600000e+02 1.234253198450000e+02 8.452507159500001e+01
2.943429798133333e+02 1.234954784950000e+02 8.263317220500002e+01
2.829627599633334e+02 1.234883667066667e+02 8.142939799000001e+01
2.709436719100000e+02 1.234039844800000e+02 8.091374895000001e+01
2.589245838566667e+02 1.233196022533333e+02 8.039809991000000e+01
2.469580331383333e+02 1.232460081316667e+02 8.031869138000000e+01
2.350440197550000e+02 1.231832021150000e+02 8.067552336000001e+01
2.231300063716666e+02 1.231203960983333e+02 8.103235534000001e+01
2.112184712400000e+02 1.231808364183333e+02 8.208666440500001e+01
1.993094143600000e+02 1.233645230750000e+02 8.383845055499998e+01
1.874003574800000e+02 1.235482097316667e+02 8.559023670500000e+01
1.757960847733333e+02 1.236970480283333e+02 8.854922817333333e+01
1.644965962400000e+02 1.238110379650000e+02 9.271542495999999e+01
1.531971077066667e+02 1.239250279016667e+02 9.688162174666667e+01
1.430105103600000e+02 1.239681833300000e+02 1.026062977666667e+02
1.339368042000000e+02 1.239405042500000e+02 1.098894530200000e+02
1.248630980400000e+02 1.239128251700000e+02 1.171726082733333e+02
1.174243100950000e+02 1.238974643783333e+02 1.251318689316667e+02
1.116204403650000e+02 1.238944218750000e+02 1.337672349950000e+02
1.058165706350000e+02 1.238913793716667e+02 1.424026010583333e+02

CELLS 31 186
5 0 31 32 33 1
5 0 34 35 36 30
5 1 37 38 39 2
5 2 40 41 42 3
5 3 43 44 45 4
5 4 46 47 48 5
5 5 49 50 51 6
5 6 52 53 54 7
5 7 55 56 57 8
5 8 58 59 60 9
5 9 61 62 63 10
5 10 64 65 66 11
5 11 67 68 69 12
5 12 70 71 72 13
5 13 73 74 75 14
5 14 76 77 78 15
5 15 79 80 81 16
5 16 82 83 84 17
5 17 85 86 87 18
5 18 88 89 90 19
5 19 91 92 93 20
5 20 94 95 96 21
5 21 97 98 99 22
5 22 100 101 102 23
5 23 103 104 105 24
5 24 106 107 108 25
5 25 109 110 111 26
5 26 112 113 114 27
5 27 115 116 117 28
5 28 118 119 120 29
5 29 121 122 123 30

CELL_TYPES 31
4
4
4
4
4
4
4
4
4
4
4
4
4
4
4
4
4
4
4
4
4
4
4
4
4
4
4
4
4
4
4

POINT_DATA 124
VECTORS PK_force double
0.000000000000000e+00 0.000000000000000e+00 0.000000000000000e+00
0.000000000000000e+00 0.000000000000000e+00 0.000000000000000e+00
0.000000000000000e+00 0.000000000000000e+00 0.000000000000000e+00
0.000000000000000e+00 0.000000000000000e+00 0.000000000000000e+00
0.000000000000000e+00 0.000000000000000e+00 0.000000000000000e+00
0.000000000000000e+00 0.000000000000000e+00 0.000000000000000e+00
0.000000000000000e+00 0.000000000000000e+00 0.000000000000000e+00
0.000000000000000e+00 0.000000000000000e+00 0.000000000000000e+00
0.000000000000000e+00 0.000000000000000e+00 0.000000000000000e+00
0.000000000000000e+00 0.000000000000000e+00 0.000000000000000e+00
0.000000000000000e+00 0.000000000000000e+00 0.000000000000000e+00
0.000000000000000e+00 0.000000000000000e+00 0.000000000000000e+00
0.000000000000000e+00 0.000000000000000e+00 0.000000000000000e+00
0.000000000000000e+00 0.000000000000000e+00 0.000000000000000e+00
0.000000000000000e+00 0.000000000000000e+00 0.000000000000000e+00
0.000000000000000e+00 0.000000000000000e+00 0.000000000000000e+00
0.000000000000000e+00 0.000000000000000e+00 0.000000000000000e+00
0.000000000000000e+00 0.000000000000000e+00 0.000000000000000e+00
0.000000000000000e+00 0.000000000000000e+00 0.000000000000000e+00
0.000000000000000e+00 0.000000000000000e+00 0.000000000000000e+00
0.000000000000000e+00 0.000000000000000e+00 0.000000000000000e+00
0.000000000000000e+00 0.000000000000000e+00 0.000000000000000e+00
0.000000000000000e+00 0.000000000000000e+00 0.000000000000000e+00
0.000000000000000e+00 0.000000000000000e+00 0.000000000000000e+00
0.000000000000000e+00 0.000000000000000e+00 0.000000000000000e+00
0.000000000000000e+00 0.000000000000000e+00 0.000000000000000e+00
0.000000000000000e+00 0.000000000000000e+00 0.000000000000000e+00
0.000000000000000e+00 0.000000000000000e+00 0.000000000000000e+00
0.000000000000000e+00 0.000000000000000e+00 0.000000000000000e+00
0.000000000000000e+00 0.000000000000000e+00 0.000000000000000e+00
0.000000000000000e+00 0.000000000000000e+00 0.000000000000000e+00
-2.722288941545783e-03 -4.001100896906356e-04  2.819682596482086e-04
-7.592577155970385e-03 -1.279614164540671e-04  7.936866526652789e-04
-9.928437006010926e-03 -9.432263885800833e-05  1.038401600866846e-03
-5.224833251353712e-03 -2.350359969644708e-04 -1.811408207609326e-03
-7.994986788874892e-03 -6.055398108866876e-05 -2.772363075936997e-03
-6.245435613034049e-03  2.420582976527741e-06 -2.165777882146798e-03
-1.032181363792508e-02  3.712827599109834e-05  2.672740459640310e-04
-9.500380677317797e-03  2.572898517395148e-05  2.459690970409099e-04
-7.450236486278169e-03  7.541257953448856e-05  1.931168168250114e-04
-6.865388110033043e-03  7.516927414858163e-05  1.574029946039000e-03
-8.409616631381176e-03  1.408065943002278e-06  1.927991261660513e-03
-7.168265444071455e-03 -8.742406104294379e-05  1.643316116791824e-03
-6.661196623077694e-03 -8.007254937675055e-05  2.629192509344815e-03
-7.462524463587181e-03 -5.145550221874227e-05  2.945594044741360e-03
-5.499270142759143e-03 -3.912029561212186e-05  2.170658259116328e-03
-4.594032510743264e-03 -4.510870343974766e-05  3.057293072067143e-03
-5.461767906437116e-03 -7.777985960108447e-05  3.634682112321102e-03
-3.219600094709429e-03 -1.099237064120156e-04  2.142352569268663e-03
-2.446150148232297e-03 -8.471569116827835e-05  2.943288938765529e-03
-3.724479509968396e-03 -8.095431248939353e-05  4.481740687958670e-03
-2.671319436231129e-03 -1.725084504358771e-04  3.213681344764621e-03
-1.979928091346702e-03 -6.177121616818431e-05  4.193097301007504e-03
-2.991086974117154e-03  9.096876266719187e-05  6.338801905830824e-03
-2.665113515310343e-03  3.151853694278715e-04  5.653413324070698e-03
-1.782563917821167e-03  3.115386919173378e-04  6.566838555485901e-03
-2.274059740041117e-03  1.711608847990641e-04  8.380459364595803e-03
-2.056908614743891e-03  2.238799512231352e-04  7.579293892084771e-03
-9.296065998710181e-04  1.086285674632437e-04  8.331485698607918e-03
-1.128832948231448e-03 -1.626245066759581e-04  1.015359556583874e-02
-1.058171502681590e-03 -5.388561684784390e-04  9.565987144607572e-03
-1.843122315761114e-05 -5.666848324841222e-04  9.858245947971052e-03
-1.769713273820204e-05 -3.275810669316471e-04  1.093013002506849e-02
-1.659338359142006e-05 -3.627131346816789e-04  9.872630976815341e-03
 1.040037113672073e-03 -2.622421162331363e-04  9.597880639399013e-03
 1.110389352173714e-03 -1.388174301306490e-05  1.019640164236725e-02
9.114219334605731e-04 2.596718746782293e-04 8.317673888841441e-03
2.148516650943591e-03 3.743860976739380e-04 7.746254057931978e-03
2.400255833399412e-03 1.694625274268914e-04 8.658197477832471e-03
1.726651081253808e-03 1.514314932358519e-04 6.227858755971015e-03
2.919921312017065e-03 1.614122949284398e-04 5.399633744143221e-03
3.657851654719866e-03 9.123880474151344e-05 6.764431662959543e-03
2.218097918075040e-03 5.290697156213004e-05 4.101912324520013e-03
3.176898743809390e-03 5.331512451512101e-05 3.046057152618498e-03
5.113568314722331e-03 7.110723951914120e-05 4.902981396233521e-03
3.347025742878095e-03 1.217071063007170e-04 3.209101546434629e-03
4.272915535047381e-03 1.596187136345297e-04 1.996402337985669e-03
7.105353365544188e-03 5.863460429896594e-05 3.319055223167563e-03
 5.975740876295751e-03 -5.135681341928938e-06  2.791199116812401e-03
 6.481269915055455e-03 -1.167371737037105e-05  1.456972165160258e-03
8.347519109456848e-03 4.943779164296741e-05 1.876591276919664e-03
7.037421818412623e-03 6.813445878700792e-05 1.582108034357670e-03
7.005903520372202e-03 9.334717107590122e-05 2.476509021550974e-04
8.530486790484581e-03 6.675336176583612e-05 3.014292219854339e-04
6.933071570394974e-03 1.194315171360437e-04 2.451421277120574e-04
 6.769178268104683e-03  1.150242328563128e-04 -1.072236120364011e-03
 8.339393884225608e-03  4.961432291182403e-05 -1.321386199823828e-03
 6.988248852335397e-03 -2.163096683395672e-06 -1.107499205426347e-03
 6.624563467581818e-03 -4.662080190657354e-06 -2.210675340604566e-03
 7.699229091513581e-03  3.699225769592317e-05 -2.569162120223564e-03
 5.962725831339495e-03  8.475045290519805e-05 -1.989523528276515e-03
 5.276575176803588e-03  7.870030916973127e-05 -3.011906142341399e-03
 6.324621793832205e-03  5.454046509216877e-05 -3.610344360796921e-03
 4.478031212907609e-03  8.817711724400142e-05 -2.555981001070766e-03
 3.652556431274619e-03  4.204423776532689e-05 -3.407333831606337e-03
 4.667383087399390e-03  4.594191049785929e-06 -4.354436169045027e-03
 3.088674315940127e-03 -4.645641455844872e-05 -2.881990830337987e-03
 2.320653070844635e-03 -6.097574171543745e-05 -3.732109226377389e-03
 3.439929748551212e-03 -9.936923089546461e-06 -5.531723206555691e-03
 2.839188551764996e-03  3.475440249295240e-05 -4.565449943986723e-03
 2.003974738233055e-03  4.490396784337290e-05 -5.459962132798105e-03
 2.676390892083450e-03  4.825317117051471e-05 -7.292125030818837e-03
 2.348737975891720e-03  7.042442675856680e-05 -6.399109492868532e-03
 1.281293761567013e-03  1.186322244112822e-05 -7.274168288621559e-03
 1.636108418999952e-03 -8.609206579306077e-05 -9.292278467124042e-03
 1.530158523000139e-03 -2.664363793784963e-04 -8.697430568639640e-03
 4.032735106930365e-04 -2.541212429134461e-04 -9.358179971160389e-03
 4.732557557152996e-04 -4.137234848674459e-05 -1.102418712696759e-02
 4.580913898822191e-04  5.059797013387771e-05 -1.068577635837913e-02
-3.215101358851912e-04  1.068682980616088e-04 -1.071586714202089e-02
-3.347996312780784e-04  2.033576468753126e-04 -1.114259771229895e-02
-2.933335495035719e-04  4.795461532656580e-04 -9.709503758244293e-03
-1.346935348938318e-03  4.578626920564773e-04 -9.204795317799124e-03
-1.406814355302434e-03  1.611202278781696e-04 -9.580751516318103e-03
-1.030591067563992e-03 -3.748857857540766e-05 -7.002271077424500e-03
-2.257749015745574e-03 -1.567045076291050e-04 -6.119141193534176e-03
-2.659929098049361e-03 -1.243797802774942e-04 -7.210811643788922e-03
-1.481271410208013e-03 -2.662111122932021e-04 -4.010195576944172e-03
-2.500132078088600e-03 -3.709615862130731e-04 -3.116194962725878e-03
-4.297483140920390e-03 -1.263630862848839e-04 -5.354492044418732e-03
-2.857541179821683e-03 -1.940849917047756e-05 -3.560136412489048e-03
-3.642596267135325e-03  2.459384815061745e-05 -2.448197242771203e-03
-5.978182815863362e-03 -8.730075830263197e-06 -4.017967575689205e-03
-4.590726549311377e-03  1.256257714887495e-05 -3.085444258084866e-03

TENSORS stress double
0.000000000000000e+00 0.000000000000000e+00 0.000000000000000e+00
0.000000000000000e+00 0.000000000000000e+00 0.000000000000000e+00
0.000000000000000e+00 0.000000000000000e+00 0.000000000000000e+00

0.000000000000000e+00 0.000000000000000e+00 0.000000000000000e+00
0.000000000000000e+00 0.000000000000000e+00 0.000000000000000e+00
0.000000000000000e+00 0.000000000000000e+00 0.000000000000000e+00

0.000000000000000e+00 0.000000000000000e+00 0.000000000000000e+00
0.000000000000000e+00 0.000000000000000e+00 0.000000000000000e+00
0.000000000000000e+00 0.000000000000000e+00 0.000000000000000e+00

0.000000000000000e+00 0.000000000000000e+00 0.000000000000000e+00
0.000000000000000e+00 0.000000000000000e+00 0.000000000000000e+00
0.000000000000000e+00 0.000000000000000e+00 0.000000000000000e+00

0.000000000000000e+00 0.000000000000000e+00 0.000000000000000e+00
0.000000000000000e+00 0.000000000000000e+00 0.000000000000000e+00
0.000000000000000e+00 0.000000000000000e+00 0.000000000000000e+00

0.000000000000000e+00 0.000000000000000e+00 0.000000000000000e+00
0.000000000000000e+00 0.000000000000000e+00 0.000000000000000e+00
0.000000000000000e+00 0.000000000000000e+00 0.000000000000000e+00

0.000000000000000e+00 0.000000000000000e+00 0.000000000000000e+00
0.000000000000000e+00 0.000000000000000e+00 0.000000000000000e+00
0.000000000000000e+00 0.000000000000000e+00 0.000000000000000e+00

0.000000000000000e+00 0.000000000000000e+00 0.000000000000000e+00
0.000000000000000e+00 0.000000000000000e+00 0.000000000000000e+00
0.000000000000000e+00 0.000000000000000e+00 0.000000000000000e+00

0.000000000000000e+00 0.000000000000000e+00 0.000000000000000e+00
0.000000000000000e+00 0.000000000000000e+00 0.000000000000000e+00
0.000000000000000e+00 0.000000000000000e+00 0.000000000000000e+00

0.000000000000000e+00 0.000000000000000e+00 0.000000000000000e+00
0.000000000000000e+00 0.000000000000000e+00 0.000000000000000e+00
0.000000000000000e+00 0.000000000000000e+00 0.000000000000000e+00

0.000000000000000e+00 0.000000000000000e+00 0.000000000000000e+00
0.000000000000000e+00 0.000000000000000e+00 0.000000000000000e+00
0.000000000000000e+00 0.000000000000000e+00 0.000000000000000e+00

0.000000000000000e+00 0.000000000000000e+00 0.000000000000000e+00
0.000000000000000e+00 0.000000000000000e+00 0.000000000000000e+00
0.000000000000000e+00 0.000000000000000e+00 0.000000000000000e+00

0.000000000000000e+00 0.000000000000000e+00 0.000000000000000e+00
0.000000000000000e+00 0.000000000000000e+00 0.000000000000000e+00
0.000000000000000e+00 0.000000000000000e+00 0.000000000000000e+00

0.000000000000000e+00 0.000000000000000e+00 0.000000000000000e+00
0.000000000000000e+00 0.000000000000000e+00 0.000000000000000e+00
0.000000000000000e+00 0.000000000000000e+00 0.000000000000000e+00

0.000000000000000e+00 0.000000000000000e+00 0.000000000000000e+00
0.000000000000000e+00 0.000000000000000e+00 0.000000000000000e+00
0.000000000000000e+00 0.000000000000000e+00 0.000000000000000e+00

0.000000000000000e+00 0.000000000000000e+00 0.000000000000000e+00
0.000000000000000e+00 0.000000000000000e+00 0.000000000000000e+00
0.000000000000000e+00 0.000000000000000e+00 0.000000000000000e+00

0.000000000000000e+00 0.000000000000000e+00 0.000000000000000e+00
0.000000000000000e+00 0.000000000000000e+00 0.000000000000000e+00
0.000000000000000e+00 0.000000000000000e+00 0.000000000000000e+00

0.000000000000000e+00 0.000000000000000e+00 0.000000000000000e+00
0.000000000000000e+00 0.000000000000000e+00 0.000000000000000e+00
0.000000000000000e+00 0.000000000000000e+00 0.000000000000000e+00

0.000000000000000e+00 0.000000000000000e+00 0.000000000000000e+00
0.000000000000000e+00 0.000000000000000e+00 0.000000000000000e+00
0.000000000000000e+00 0.000000000000000e+00 0.000000000000000e+00

0.000000000000000e+00 0.000000000000000e+00 0.000000000000000e+00
0.000000000000000e+00 0.000000000000000e+00 0.000000000000000e+00
0.000000000000000e+00 0.000000000000000e+00 0.000000000000000e+00

0.000000000000000e+00 0.000000000000000e+00 0.000000000000000e+00
0.000000000000000e+00 0.000000000000000e+00 0.000000000000000e+00
0.000000000000000e+00 0.000000000000000e+00 0.000000000000000e+00

0.000000000000000e+00 0.000000000000000e+00 0.000000000000000e+00
0.000000000000000e+00 0.000000000000000e+00 0.000000000000000e+00
0.000000000000000e+00 0.000000000000000e+00 0.000000000000000e+00

0.000000000000000e+00 0.000000000000000e+00 0.000000000000000e+00
0.000000000000000e+00 0.000000000000000e+00 0.000000000000000e+00
0.000000000000000e+00 0.000000000000000e+00 0.000000000000000e+00

0.000000000000000e+00 0.000000000000000e+00 0.000000000000000e+00
0.000000000000000e+00 0.000000000000000e+00 0.000000000000000e+00
0.000000000000000e+00 0.000000000000000e+00 0.000000000000000e+00

0.000000000000000e+00 0.000000000000000e+00 0.000000000000000e+00
0.000000000000000e+00 0.000000000000000e+00 0.000000000000000e+00
0.000000000000000e+00 0.000000000000000e+00 0.000000000000000e+00

0.000000000000000e+00 0.000000000000000e+00 0.000000000000000e+00
0.000000000000000e+00 0.000000000000000e+00 0.000000000000000e+00
0.000000000000000e+00 0.000000000000000e+00 0.000000000000000e+00

0.000000000000000e+00 0.000000000000000e+00 0.000000000000000e+00
0.000000000000000e+00 0.000000000000000e+00 0.000000000000000e+00
0.000000000000000e+00 0.000000000000000e+00 0.000000000000000e+00

0.000000000000000e+00 0.000000000000000e+00 0.000000000000000e+00
0.000000000000000e+00 0.000000000000000e+00 0.000000000000000e+00
0.000000000000000e+00 0.000000000000000e+00 0.000000000000000e+00

0.000000000000000e+00 0.000000000000000e+00 0.000000000000000e+00
0.000000000000000e+00 0.000000000000000e+00 0.000000000000000e+00
0.000000000000000e+00 0.000000000000000e+00 0.000000000000000e+00

0.000000000000000e+00 0.000000000000000e+00 0.000000000000000e+00
0.000000000000000e+00 0.000000000000000e+00 0.000000000000000e+00
0.000000000000000e+00 0.000000000000000e+00 0.000000000000000e+00

0.000000000000000e+00 0.000000000000000e+00 0.000000000000000e+00
0.000000000000000e+00 0.000000000000000e+00 0.000000000000000e+00
0.000000000000000e+00 0.000000000000000e+00 0.000000000000000e+00

-2.585271600027235e-02  1.767839512155020e-01  1.258964184665973e-03
 1.767839512155020e-01 -1.143666018051385e-02  1.313947938295210e-01
 1.258964184665973e-03  1.313947938295210e-01 -1.421414421624194e-02

-8.171653007067301e-03  4.930720493277189e-01  1.332622968646286e-03
 4.930720493277189e-01 -8.225654562510162e-03  1.105825396870269e-01
 1.332622968646286e-03  1.105825396870269e-01 -6.395173659851998e-03

-5.296918632629873e-03  6.447200659162703e-01  7.929525486882059e-03
 6.447200659162703e-01 -6.055012043598289e-03  9.737809664335774e-02
 7.929525486882059e-03  9.737809664335774e-02 -4.802439974077851e-03

-1.716173090513620e-02  3.571838854476427e-01  3.153281233359951e-03
 3.571838854476427e-01 -9.369977869705297e-03  1.483505482737516e-01
 3.153281233359951e-03  1.483505482737516e-01 -1.218031776235930e-02

-5.210244240975777e-03  5.465553430689571e-01  3.083989802418353e-03
 5.465553430689571e-01 -6.006426338610524e-03  1.518653835234200e-01
 3.083989802418353e-03  1.518653835234200e-01 -3.813721360315824e-03

-6.560212914118996e-04  4.269524351496141e-01  2.366048500900169e-03
 4.269524351496141e-01 -4.142089304308883e-03  1.841050867239286e-01
 2.366048500900169e-03  1.841050867239286e-01 -4.933180628061967e-04

 2.444384330774544e-03  6.668874905807555e-01  1.811788596560303e-03
 6.668874905807555e-01 -5.740650783252149e-03  9.214654819042425e-02
 1.811788596560303e-03  9.214654819042425e-02  2.309053906214518e-03

 1.672260380845878e-03  6.138201572330947e-01  4.317701494897038e-04
 6.138201572330947e-01 -6.223914408156293e-03  8.233957462131768e-02
 4.317701494897038e-04  8.233957462131768e-02  2.818992261373066e-03

 4.892145293257748e-03  4.813583533699075e-01  8.004860893454137e-04
 4.813583533699075e-01 -5.189477864567409e-03  6.901041503407569e-02
 8.004860893454137e-04  6.901041503407569e-02  4.962377389997393e-03

 4.997835388787631e-03  4.549262875931007e-01  7.748671589481787e-05
 4.549262875931007e-01 -4.812416402230521e-03  6.166006807727628e-02
 7.748671589481787e-05  6.166006807727628e-02  4.873807872838485e-03

 6.809928175869003e-05  5.572526335521785e-01 -1.049734893134973e-04
 5.572526335521785e-01 -5.420724057305607e-03  4.655972239212210e-02
-1.049734893134973e-04  4.655972239212210e-02  1.404257942371208e-03

-6.022605682061744e-03  4.749969092835468e-01 -9.970968352035073e-04
 4.749969092835468e-01 -5.688622415806230e-03  3.932669745619149e-02
-9.970968352035073e-04  3.932669745619149e-02 -2.673469924136641e-03

-6.137148643780667e-03  4.625462024504535e-01 -1.459482674064880e-03
 4.625462024504535e-01 -5.077008068786817e-03  3.006856688480827e-02
-1.459482674064880e-03  3.006856688480827e-02 -2.508294332130996e-03

-3.979310538092392e-03  5.181875234138995e-01 -1.026651819181284e-03
 5.181875234138995e-01 -3.590289030984562e-03  8.507321236996322e-03
-1.026651819181284e-03  8.507321236996322e-03 -1.234680099004658e-03

-4.168731260577942e-03  3.818705837044916e-01 -3.677059311161577e-03
 3.818705837044916e-01 -2.759152875006362e-03  8.757675025423644e-04
-3.677059311161577e-03  8.757675025423644e-04 -2.982046891564685e-03

-5.113342482826842e-03  3.564343179282979e-01 -2.423407870841069e-03
 3.564343179282979e-01 -1.790690395554178e-03 -9.514986945916730e-03
-2.423407870841069e-03 -9.514986945916730e-03 -1.731706267670820e-03

-7.173154460415532e-03  4.237545663467276e-01 -1.709470685730151e-03
 4.237545663467276e-01 -5.038181874483631e-04 -4.165102163039135e-02
-1.709470685730151e-03 -4.165102163039135e-02 -2.230115682927788e-03

-1.062062475793334e-02  2.498018367495148e-01 -3.142883121489613e-03
 2.498018367495148e-01 -2.114119515868389e-05 -3.137249206743168e-02
-3.142883121489613e-03 -3.137249206743168e-02 -3.085570741383938e-03

-1.205161666388231e-02  2.472339202003644e-01 -2.899467666934618e-03
 2.472339202003644e-01  1.209011372604804e-03 -3.556782492941497e-02
-2.899467666934618e-03 -3.556782492941497e-02 -2.094423199836327e-03

-1.234567378953706e-02  3.764290559679344e-01 -3.459417923526308e-03
 3.764290559679344e-01  3.381517013991816e-03 -5.013332704902983e-02
-3.459417923526308e-03 -5.013332704902983e-02 -1.783656959818355e-03

-2.044818948602773e-02  2.699875687266968e-01 -2.503940577264728e-03
 2.699875687266968e-01  3.460094197822200e-03 -2.190988881964649e-02
-2.503940577264728e-03 -2.190988881964649e-02 -3.427773127672622e-03

-1.862343287451632e-02  2.996970539852670e-01 -4.378404596261917e-03
 2.996970539852670e-01  5.187118393355642e-03 -1.507424527775352e-02
-4.378404596261917e-03 -1.507424527775352e-02 -3.508628665521143e-03

-4.491132115702313e-03  4.528003318649773e-01 -8.616958972730545e-03
 4.528003318649773e-01  8.379928912017486e-03 -8.929870375016764e-04
-8.616958972730545e-03 -8.929870375016764e-04 -3.268820226441374e-03

 1.122727142886240e-02  4.036744520795459e-01 -1.721225967707252e-02
 4.036744520795459e-01  1.013250457265175e-02  2.071701322571984e-02
-1.721225967707252e-02  2.071701322571984e-02 -7.312850803700029e-04

 1.449203027773915e-02  4.395234762321895e-01 -1.691745691372716e-02
 4.395234762321895e-01  1.041346363498185e-02  3.198111487283266e-02
-1.691745691372716e-02  3.198111487283266e-02 -1.461949767553999e-03

 8.886836571260001e-03  5.608761538619454e-01 -9.043525435464939e-03
 5.608761538619454e-01  9.051207644462326e-03  4.673047472226390e-02
-9.043525435464939e-03  4.673047472226390e-02 -1.081912671041264e-03

 1.422633580372037e-02  5.072790763399854e-01 -1.112317236554831e-02
 5.072790763399854e-01  9.639377803088892e-03  5.774200165065949e-02
-1.112317236554831e-02  5.774200165065949e-02  1.065908376434538e-03

 1.217563796274557e-02  5.416626441362182e-01 -5.703834934791865e-03
 5.416626441362182e-01  9.664699729743818e-03  6.564124691485990e-02
-5.703834934791865e-03  6.564124691485990e-02  1.295648032285537e-03

1.102688323853193e-03 6.599351765756486e-01 1.069240379775132e-02
6.599351765756486e-01 9.713172103780449e-03 7.659948846767940e-02
1.069240379775132e-02 7.659948846767940e-02 2.783447304424429e-03

-6.547703294027412e-03  6.216385731319304e-01  3.429282188326926e-02
 6.216385731319304e-01  1.076681395015288e-02  8.219595423857586e-02
 3.429282188326926e-02  8.219595423857586e-02  4.727335066152938e-03

-1.104875248756536e-02  6.368526709161919e-01  3.658757496955829e-02
 6.368526709161919e-01  1.263913299589471e-02  8.655463333033349e-02