# vtk DataFile Version 3.0
# correlation data
ASCII
DATASET STRUCTURED_GRID
DIMENSIONS 30 27 1
POINTS 810 double
0.0000 0.0000 0.0000 2.8600 0.0000 0.0000 5.7200 0.0000 0.0000
8.5800 0.0000 0.0000 11.4400 0.0000 0.0000 14.3000 0.0000 0.0000
17.1600 0.0000 0.0000 20.0200 0.0000 0.0000 22.8800 0.0000 0.0000
25.7400 0.0000 0.0000 28.6000 0.0000 0.0000 31.4600 0.0000 0.0000
34.3200 0.0000 0.0000 37.1800 0.0000 0.0000 40.0400 0.0000 0.0000
42.9000 0.0000 0.0000 45.7600 0.0000 0.0000 48.6200 0.0000 0.0000
51.4800 0.0000 0.0000 54.3400 0.0000 0.0000 57.2000 0.0000 0.0000
60.0600 0.0000 0.0000 62.9200 0.0000 0.0000 65.7800 0.0000 0.0000
68.6400 0.0000 0.0000 71.5000 0.0000 0.0000 74.3600 0.0000 0.0000
77.2200 0.0000 0.0000 80.0800 0.0000 0.0000 82.9400 0.0000 0.0000
1.4300 2.4768 0.0000 4.2900 2.4768 0.0000 7.1500 2.4768 0.0000
10.0100 2.4768 0.0000 12.8700 2.4768 0.0000 15.7300 2.4768 0.0000
18.5900 2.4768 0.0000 21.4500 2.4768 0.0000 24.3100 2.4768 0.0000
27.1700 2.4768 0.0000 30.0300 2.4768 0.0000 32.8900 2.4768 0.0000
35.7500 2.4768 0.0000 38.6100 2.4768 0.0000 41.4700 2.4768 0.0000
44.3300 2.4768 0.0000 47.1900 2.4768 0.0000 50.0500 2.4768 0.0000
52.9100 2.4768 0.0000 55.7700 2.4768 0.0000 58.6300 2.4768 0.0000
61.4900 2.4768 0.0000 64.3500 2.4768 0.0000 67.2100 2.4768 0.0000
70.0700 2.4768 0.0000 72.9300 2.4768 0.0000 75.7900 2.4768 0.0000
78.6500 2.4768 0.0000 81.5100 2.4768 0.0000 84.3700 2.4768 0.0000
2.8600 4.9537 0.0000 5.7200 4.9537 0.0000 8.5800 4.9537 0.0000
11.4400 4.9537 0.0000 14.3000 4.9537 0.0000 17.1600 4.9537 0.0000
20.0200 4.9537 0.0000 22.8800 4.9537 0.0000 25.7400 4.9537 0.0000
28.6000 4.9537 0.0000 31.4600 4.9537 0.0000 34.3200 4.9537 0.0000
37.1800 4.9537 0.0000 40.0400 4.9537 0.0000 42.9000 4.9537 0.0000
45.7600 4.9537 0.0000 48.6200 4.9537 0.0000 51.4800 4.9537 0.0000
54.3400 4.9537 0.0000 57.2000 4.9537 0.0000 60.0600 4.9537 0.0000
62.9200 4.9537 0.0000 65.7800 4.9537 0.0000 68.6400 4.9537 0.0000
71.5000 4.9537 0.0000 74.3600 4.9537 0.0000 77.2200 4.9537 0.0000
80.0800 4.9537 0.0000 82.9400 4.9537 0.0000 85.8000 4.9537 0.0000
4.2900 7.4305 0.0000 7.1500 7.4305 0.0000 10.0100 7.4305 0.0000
12.8700 7.4305 0.0000 15.7300 7.4305 0.0000 18.5900 7.4305 0.0000
21.4500 7.4305 0.0000 24.3100 7.4305 0.0000 27.1700 7.4305 0.0000
30.0300 7.4305 0.0000 32.8900 7.4305 0.0000 35.7500 7.4305 0.0000
38.6100 7.4305 0.0000 41.4700 7.4305 0.0000 44.3300 7.4305 0.0000
47.1900 7.4305 0.0000 50.0500 7.4305 0.0000 52.9100 7.4305 0.0000
55.7700 7.4305 0.0000 58.6300 7.4305 0.0000 61.4900 7.4305 0.0000
64.3500 7.4305 0.0000 67.2100 7.4305 0.0000 70.0700 7.4305 0.0000
72.9300 7.4305 0.0000 75.7900 7.4305 0.0000 78.6500 7.4305 0.0000
81.5100 7.4305 0.0000 84.3700 7.4305 0.0000 87.2300 7.4305 0.0000
5.7200 9.9073 0.0000 8.5800 9.9073 0.0000 11.4400 9.9073 0.0000
14.3000 9.9073 0.0000 17.1600 9.9073 0.0000 20.0200 9.9073 0.0000
22.8800 9.9073 0.0000 25.7400 9.9073 0.0000 28.6000 9.9073 0.0000
31.4600 9.9073 0.0000 34.3200 9.9073 0.0000 37.1800 9.9073 0.0000
40.0400 9.9073 0.0000 42.9000 9.9073 0.0000 45.7600 9.9073 0.0000
48.6200 9.9073 0.0000 51.4800 9.9073 0.0000 54.3400 9.9073 0.0000
57.2000 9.9073 0.0000 60.0600 9.9073 0.0000 62.9200 9.9073 0.0000
65.7800 9.9073 0.0000 68.6400 9.9073 0.0000 71.5000 9.9073 0.0000
74.3600 9.9073 0.0000 77.2200 9.9073 0.0000 80.0800 9.9073 0.0000
82.9400 9.9073 0.0000 85.8000 9.9073 0.0000 88.6600 9.9073 0.0000
7.1500 12.3842 0.0000 10.0100 12.3842 0.0000 12.8700 12.3842 0.0000
15.7300 12.3842 0.0000 18.5900 12.3842 0.0000 21.4500 12.3842 0.0000
24.3100 12.3842 0.0000 27.1700 12.3842 0.0000 30.0300 12.3842 0.0000
32.8900 12.3842 0.0000 35.7500 12.3842 0.0000 38.6100 12.3842 0.0000
41.4700 12.3842 0.0000 44.3300 12.3842 0.0000 47.1900 12.3842 0.0000
50.0500 12.3842 0.0000 52.9100 12.3842 0.0000 55.7700 12.3842 0.0000
58.6300 12.3842 0.0000 61.4900 12.3842 0.0000 64.3500 12.3842 0.0000
67.2100 12.3842 0.0000 70.0700 12.3842 0.0000 72.9300 12.3842 0.0000
75.7900 12.3842 0.0000 78.6500 12.3842 0.0000 81.5100 12.3842 0.0000
84.3700 12.3842 0.0000 87.2300 12.3842 0.0000 90.0900 12.3842 0.0000
8.5800 14.8610 0.0000 11.4400 14.8610 0.0000 14.3000 14.8610 0.0000
17.1600 14.8610 0.0000 20.0200 14.8610 0.0000 22.8800 14.8610 0.0000
25.7400 14.8610 0.0000 28.6000 14.8610 0.0000 31.4600 14.8610 0.0000
34.3200 14.8610 0.0000 37.1800 14.8610 0.0000 40.0400 14.8610 0.0000
42.9000 14.8610 0.0000 45.7600 14.8610 0.0000 48.6200 14.8610 0.0000
51.4800 14.8610 0.0000 54.3400 14.8610 0.0000 57.2000 14.8610 0.0000
60.0600 14.8610 0.0000 62.9200 14.8610 0.0000 65.7800 14.8610 0.0000
68.6400 14.8610 0.0000 71.5000 14.8610 0.0000 74.3600 14.8610 0.0000
77.2200 14.8610 0.0000 80.0800 14.8610 0.0000 82.9400 14.8610 0.0000
85.8000 14.8610 0.0000 88.6600 14.8610 0.0000 91.5200 14.8610 0.0000
10.0100 17.3378 0.0000 12.8700 17.3378 0.0000 15.7300 17.3378 0.0000
18.5900 17.3378 0.0000 21.4500 17.3378 0.0000 24.3100 17.3378 0.0000
27.1700 17.3378 0.0000 30.0300 17.3378 0.0000 32.8900 17.3378 0.0000
35.7500 17.3378 0.0000 38.6100 17.3378 0.0000 41.4700 17.3378 0.0000
44.3300 17.3378 0.0000 47.1900 17.3378 0.0000 50.0500 17.3378 0.0000
52.9100 17.3378 0.0000 55.7700 17.3378 0.0000 58.6300 17.3378 0.0000
61.4900 17.3378 0.0000 64.3500 17.3378 0.0000 67.2100 17.3378 0.0000
70.0700 17.3378 0.0000 72.9300 17.3378 0.0000 75.7900 17.3378 0.0000
78.6500 17.3378 0.0000 81.5100 17.3378 0.0000 84.3700 17.3378 0.0000
87.2300 17.3378 0.0000 90.0900 17.3378 0.0000 92.9500 17.3378 0.0000
11.4400 19.8147 0.0000 14.3000 19.8147 0.0000 17.1600 19.8147 0.0000
20.0200 19.8147 0.0000 22.8800 19.8147 0.0000 25.7400 19.8147 0.0000
28.6000 19.8147 0.0000 31.4600 19.8147 0.0000 34.3200 19.8147 0.0000
37.1800 19.8147 0.0000 40.0400 19.8147 0.0000 42.9000 19.8147 0.0000
45.7600 19.8147 0.0000 48.6200 19.8147 0.0000 51.4800 19.8147 0.0000
54.3400 19.8147 0.0000 57.2000 19.8147 0.0000 60.0600 19.8147 0.0000
62.9200 19.8147 0.0000 65.7800 19.8147 0.0000 68.6400 19.8147 0.0000
71.5000 19.8147 0.0000 74.3600 19.8147 0.0000 77.2200 19.8147 0.0000
80.0800 19.8147 0.0000 82.9400 19.8147 0.0000 85.8000 19.8147 0.0000
88.6600 19.8147 0.0000 91.5200 19.8147 0.0000 94.3800 19.8147 0.0000
12.8700 22.2915 0.0000 15.7300 22.2915 0.0000 18.5900 22.2915 0.0000
21.4500 22.2915 0.0000 24.3100 22.2915 0.0000 27.1700 22.2915 0.0000
30.0300 22.2915 0.0000 32.8900 22.2915 0.0000 35.7500 22.2915 0.0000
38.6100 22.2915 0.0000 41.4700 22.2915 0.0000 44.3300 22.2915 0.0000
47.1900 22.2915 0.0000 50.0500 22.2915 0.0000 52.9100 22.2915 0.0000
55.7700 22.2915 0.0000 58.6300 22.2915 0.0000 61.4900 22.2915 0.0000
64.3500 22.2915 0.0000 67.2100 22.2915 0.0000 70.0700 22.2915 0.0000
72.9300 22.2915 0.0000 75.7900 22.2915 0.0000 78.6500 22.2915 0.0000
81.5100 22.2915 0.0000 84.3700 22.2915 0.0000 87.2300 22.2915 0.0000
90.0900 22.2915 0.0000 92.9500 22.2915 0.0000 95.8100 22.2915 0.0000
14.3000 24.7683 0.0000 17.1600 24.7683 0.0000 20.0200 24.7683 0.0000
22.8800 24.7683 0.0000 25.7400 24.7683 0.0000 28.6000 24.7683 0.0000
31.4600 24.7683 0.0000 34.3200 24.7683 0.0000 37.1800 24.7683 0.0000
40.0400 24.7683 0.0000 42.9000 24.7683 0.0000 45.7600 24.7683 0.0000
48.6200 24.7683 0.0000 51.4800 24.7683 0.0000 54.3400 24.7683 0.0000
57.2000 24.7683 0.0000 60.0600 24.7683 0.0000 62.9200 24.7683 0.0000
65.7800 24.7683 0.0000 68.6400 24.7683 0.0000 71.5000 24.7683 0.0000
74.3600 24.7683 0.0000 77.2200 24.7683 0.0000 80.0800 24.7683 0.0000
82.9400 24.7683 0.0000 85.8000 24.7683 0.0000 88.6600 24.7683 0.0000
91.5200 24.7683 0.0000 94.3800 24.7683 0.0000 97.2400 24.7683 0.0000
15.7300 27.2452 0.0000 18.5900 27.2452 0.0000 21.4500 27.2452 0.0000
24.3100 27.2452 0.0000 27.1700 27.2452 0.0000 30.0300 27.2452 0.0000
32.8900 27.2452 0.0000 35.7500 27.2452 0.0000 38.6100 27.2452 0.0000
41.4700 27.2452 0.0000 44.3300 27.2452 0.0000 47.1900 27.2452 0.0000
50.0500 27.2452 0.0000 52.9100 27.2452 0.0000 55.7700 27.2452 0.0000
58.6300 27.2452 0.0000 61.4900 27.2452 0.0000 64.3500 27.2452 0.0000
67.2100 27.2452 0.0000 70.0700 27.2452 0.0000 72.9300 27.2452 0.0000
75.7900 27.2452 0.0000 78.6500 27.2452 0.0000 81.5100 27.2452 0.0000
84.3700 27.2452 0.0000 87.2300 27.2452 0.0000 90.0900 27.2452 0.0000
92.9500 27.2452 0.0000 95.8100 27.2452 0.0000 98.6700 27.2452 0.0000
17.1600 29.7220 0.0000 20.0200 29.7220 0.0000 22.8800 29.7220 0.0000
25.7400 29.7220 0.0000 28.6000 29.7220 0.0000 31.4600 29.7220 0.0000
34.3200 29.7220 0.0000 37.1800 29.7220 0.0000 40.0400 29.7220 0.0000
42.9000 29.7220 0.0000 45.7600 29.7220 0.0000 48.6200 29.7220 0.0000
51.4800 29.7220 0.0000 54.3400 29.7220 0.0000 57.2000 29.7220 0.0000
60.0600 29.7220 0.0000 62.9200 29.7220 0.0000 65.7800 29.7220 0.0000
68.6400 29.7220 0.0000 71.5000 29.7220 0.0000 74.3600 29.7220 0.0000
77.2200 29.7220 0.0000 80.0800 29.7220 0.0000 82.9400 29.7220 0.0000
85.8000 29.7220 0.0000 88.6600 29.7220 0.0000 91.5200 29.7220 0.0000
94.3800 29.7220 0.0000 97.2400 29.7220 0.0000 100.1000 29.7220 0.0000
18.5900 32.1988 0.0000 21.4500 32.1988 0.0000 24.3100 32.1988 0.0000
27.1700 32.1988 0.0000 30.0300 32.1988 0.0000 32.8900 32.1988 0.0000
35.7500 32.1988 0.0000 38.6100 32.1988 0.0000 41.4700 32.1988 0.0000
44.3300 32.1988 0.0000 47.1900 32.1988 0.0000 50.0500 32.1988 0.0000
52.9100 32.1988 0.0000 55.7700 32.1988 0.0000 58.6300 32.1988 0.0000
61.4900 32.1988 0.0000 64.3500 32.1988 0.0000 67.2100 32.1988 0.0000
70.0700 32.1988 0.0000 72.9300 32.1988 0.0000 75.7900 32.1988 0.0000
78.6500 32.1988 0.0000 81.5100 32.1988 0.0000 84.3700 32.1988 0.0000
87.2300 32.1988 0.0000 90.0900 32.1988 0.0000 92.9500 32.1988 0.0000
95.8100 32.1988 0.0000 98.6700 32.1988 0.0000 101.5300 32.1988 0.0000
20.0200 34.6757 0.0000 22.8800 34.6757 0.0000 25.7400 34.6757 0.0000
28.6000 34.6757 0.0000 31.4600 34.6757 0.0000 34.3200 34.6757 0.0000
37.1800 34.6757 0.0000 40.0400 34.6757 0.0000 42.9000 34.6757 0.0000
45.7600 34.6757 0.0000 48.6200 34.6757 0.0000 51.4800 34.6757 0.0000
54.3400 34.6757 0.0000 57.2000 34.6757 0.0000 60.0600 34.6757 0.0000
62.9200 34.6757 0.0000 65.7800 34.6757 0.0000 68.6400 34.6757 0.0000
71.5000 34.6757 0.0000 74.3600 34.6757 0.0000 77.2200 34.6757 0.0000
80.0800 34.6757 0.0000 82.9400 34.6757 0.0000 85.8000 34.6757 0.0000
88.6600 34.6757 0.0000 91.5200 34.6757 0.0000 94.3800 34.6757 0.0000
97.2400 34.6757 0.0000 100.1000 34.6757 0.0000 102.9600 34.6757 0.0000
21.4500 37.1525 0.0000 24.3100 37.1525 0.0000 27.1700 37.1525 0.0000
30.0300 37.1525 0.0000 32.8900 37.1525 0.0000 35.7500 37.1525 0.0000
38.6100 37.1525 0.0000 41.4700 37.1525 0.0000 44.3300 37.1525 0.0000
47.1900 37.1525 0.0000 50.0500 37.1525 0.0000 52.9100 37.1525 0.0000
55.7700 37.1525 0.0000 58.6300 37.1525 0.0000 61.4900 37.1525 0.0000
64.3500 37.1525 0.0000 67.2100 37.1525 0.0000 70.0700 37.1525 0.0000
72.9300 37.1525 0.0000 75.7900 37.1525 0.0000 78.6500 37.1525 0.0000
81.5100 37.1525 0.0000 84.3700 37.1525 0.0000 87.2300 37.1525 0.0000
90.0900 37.1525 0.0000 92.9500 37.1525 0.0000 95.8100 37.1525 0.0000
98.6700 37.1525 0.0000 101.5300 37.1525 0.0000 104.3900 37.1525 0.0000
22.8800 39.6293 0.0000 25.7400 39.6293 0.0000 28.6000 39.6293 0.0000
31.4600 39.6293 0.0000 34.3200 39.6293 0.0000 37.1800 39.6293 0.0000
40.0400 39.6293 0.0000 42.9000 39.6293 0.0000 45.7600 39.6293 0.0000
48.6200 39.6293 0.0000 51.4800 39.6293 0.0000 54.3400 39.6293 0.0000
57.2000 39.6293 0.0000 60.0600 39.6293 0.0000 62.9200 39.6293 0.0000
65.7800 39.6293 0.0000 68.6400 39.6293 0.0000 71.5000 39.6293 0.0000
74.3600 39.6293 0.0000 77.2200 39.6293 0.0000 80.0800 39.6293 0.0000
82.9400 39.6293 0.0000 85.8000 39.6293 0.0000 88.6600 39.6293 0.0000
91.5200 39.6293 0.0000 94.3800 39.6293 0.0000 97.2400 39.6293 0.0000
100.1000 39.6293 0.0000 102.9600 39.6293 0.0000 105.8200 39.6293 0.0000
24.3100 42.1062 0.0000 27.1700 42.1062 0.0000 30.0300 42.1062 0.0000
32.8900 42.1062 0.0000 35.7500 42.1062 0.0000 38.6100 42.1062 0.0000
41.4700 42.1062 0.0000 44.3300 42.1062 0.0000 47.1900 42.1062 0.0000
50.0500 42.1062 0.0000 52.9100 42.1062 0.0000 55.7700 42.1062 0.0000
58.6300 42.1062 0.0000 61.4900 42.1062 0.0000 64.3500 42.1062 0.0000
67.2100 42.1062 0.0000 70.0700 42.1062 0.0000 72.9300 42.1062 0.0000
75.7900 42.1062 0.0000 78.6500 42.1062 0.0000 81.5100 42.1062 0.0000
84.3700 42.1062 0.0000 87.2300 42.1062 0.0000 90.0900 42.1062 0.0000
92.9500 42.1062 0.0000 95.8100 42.1062 0.0000 98.6700 42.1062 0.0000
101.5300 42.1062 0.0000 104.3900 42.1062 0.0000 107.2500 42.1062 0.0000
25.7400 44.5830 0.0000 28.6000 44.5830 0.0000 31.4600 44.5830 0.0000
34.3200 44.5830 0.0000 37.1800 44.5830 0.0000 40.0400 44.5830 0.0000
42.9000 44.5830 0.0000 45.7600 44.5830 0.0000 48.6200 44.5830 0.0000
51.4800 44.5830 0.0000 54.3400 44.5830 0.0000 57.2000 44.5830 0.0000
60.0600 44.5830 0.0000 62.9200 44.5830 0.0000 65.7800 44.5830 0.0000
68.6400 44.5830 0.0000 71.5000 44.5830 0.0000 74.3600 44.5830 0.0000
77.2200 44.5830 0.0000 80.0800 44.5830 0.0000 82.9400 44.5830 0.0000
85.8000 44.5830 0.0000 88.6600 44.5830 0.0000 91.5200 44.5830 0.0000
94.3800 44.5830 0.0000 97.2400 44.5830 0.0000 100.1000 44.5830 0.0000
102.9600 44.5830 0.0000 105.8200 44.5830 0.0000 108.6800 44.5830 0.0000
27.1700 47.0598 0.0000 30.0300 47.0598 0.0000 32.8900 47.0598 0.0000
35.7500 47.0598 0.0000 38.6100 47.0598 0.0000 41.4700 47.0598 0.0000
44.3300 47.0598 0.0000 47.1900 47.0598 0.0000 50.0500 47.0598 0.0000
52.9100 47.0598 0.0000 55.7700 47.0598 0.0000 58.6300 47.0598 0.0000
61.4900 47.0598 0.0000 64.3500 47.0598 0.0000 67.2100 47.0598 0.0000
70.0700 47.0598 0.0000 72.9300 47.0598 0.0000 75.7900 47.0598 0.0000
78.6500 47.0598 0.0000 81.5100 47.0598 0.0000 84.3700 47.0598 0.0000
87.2300 47.0598 0.0000 90.0900 47.0598 0.0000 92.9500 47.0598 0.0000
95.8100 47.0598 0.0000 98.6700 47.0598 0.0000 101.5300 47.0598 0.0000
104.3900 47.0598 0.0000 107.2500 47.0598 0.0000 110.1100 47.0598 0.0000
28.6000 49.5367 0.0000 31.4600 49.5367 0.0000 34.3200 49.5367 0.0000
37.1800 49.5367 0.0000 40.0400 49.5367 0.0000 42.9000 49.5367 0.0000
45.7600 49.5367 0.0000 48.6200 49.5367 0.0000 51.4800 49.5367 0.0000
54.3400 49.5367 0.0000 57.2000 49.5367 0.0000 60.0600 49.5367 0.0000
62.9200 49.5367 0.0000 65.7800 49.5367 0.0000 68.6400 49.5367 0.0000
71.5000 49.5367 0.0000 74.3600 49.5367 0.0000 77.2200 49.5367 0.0000
80.0800 49.5367 0.0000 82.9400 49.5367 0.0000 85.8000 49.5367 0.0000
88.6600 49.5367 0.0000 91.5200 49.5367 0.0000 94.3800 49.5367 0.0000
97.2400 49.5367 0.0000 100.1000 49.5367 0.0000 102.9600 49.5367 0.0000
105.8200 49.5367 0.0000 108.6800 49.5367 0.0000 111.5400 49.5367 0.0000
30.0300 52.0135 0.0000 32.8900 52.0135 0.0000 35.7500 52.0135 0.0000
38.6100 52.0135 0.0000 41.4700 52.0135 0.0000 44.3300 52.0135 0.0000
47.1900 52.0135 0.0000 50.0500 52.0135 0.0000 52.9100 52.0135 0.0000
55.7700 52.0135 0.0000 58.6300 52.0135 0.0000 61.4900 52.0135 0.0000
64.3500 52.0135 0.0000 67.2100 52.0135 0.0000 70.0700 52.0135 0.0000
72.9300 52.0135 0.0000 75.7900 52.0135 0.0000 78.6500 52.0135 0.0000
81.5100 52.0135 0.0000 84.3700 52.0135 0.0000 87.2300 52.0135 0.0000
90.0900 52.0135 0.0000 92.9500 52.0135 0.0000 95.8100 52.0135 0.0000
98.6700 52.0135 0.0000 101.5300 52.0135 0.0000 104.3900 52.0135 0.0000
107.2500 52.0135 0.0000 110.1100 52.0135 0.0000 112.9700 52.0135 0.0000
31.4600 54.4903 0.0000 34.3200 54.4903 0.0000 37.1800 54.4903 0.0000
40.0400 54.4903 0.0000 42.9000 54.4903 0.0000 45.7600 54.4903 0.0000
48.6200 54.4903 0.0000 51.4800 54.4903 0.0000 54.3400 54.4903 0.0000
57.2000 54.4903 0.0000 60.0600 54.4903 0.0000 62.9200 54.4903 0.0000
65.7800 54.4903 0.0000 68.6400 54.4903 0.0000 71.5000 54.4903 0.0000
74.3600 54.4903 0.0000 77.2200 54.4903 0.0000 80.0800 54.4903 0.0000
82.9400 54.4903 0.0000 85.8000 54.4903 0.0000 88.6600 54.4903 0.0000
91.5200 54.4903 0.0000 94.3800 54.4903 0.0000 97.2400 54.4903 0.0000
100.1000 54.4903 0.0000 102.9600 54.4903 0.0000 105.8200 54.4903 0.0000
108.6800 54.4903 0.0000 111.5400 54.4903 0.0000 114.4000 54.4903 0.0000
32.8900 56.9672 0.0000 35.7500 56.9672 0.0000 38.6100 56.9672 0.0000
41.4700 56.9672 0.0000 44.3300 56.9672 0.0000 47.1900 56.9672 0.0000
50.0500 56.9672 0.0000 52.9100 56.9672 0.0000 55.7700 56.9672 0.0000
58.6300 56.9672 0.0000 61.4900 56.9672 0.0000 64.3500 56.9672 0.0000
67.2100 56.9672 0.0000 70.0700 56.9672 0.0000 72.9300 56.9672 0.0000
75.7900 56.9672 0.0000 78.6500 56.9672 0.0000 81.5100 56.9672 0.0000
84.3700 56.9672 0.0000 87.2300 56.9672 0.0000 90.0900 56.9672 0.0000
92.9500 56.9672 0.0000 95.8100 56.9672 0.0000 98.6700 56.9672 0.0000
101.5300 56.9672 0.0000 104.3900 56.9672 0.0000 107.2500 56.9672 0.0000
110.1100 56.9672 0.0000 112.9700 56.9672 0.0000 115.8300 56.9672 0.0000
34.3200 59.4440 0.0000 37.1800 59.4440 0.0000 40.0400 59.4440 0.0000
42.9000 59.4440 0.0000 45.7600 59.4440 0.0000 48.6200 59.4440 0.0000
51.4800 59.4440 0.0000 54.3400 59.4440 0.0000 57.2000 59.4440 0.0000
60.0600 59.4440 0.0000 62.9200 59.4440 0.0000 65.7800 59.4440 0.0000
68.6400 59.4440 0.0000 71.5000 59.4440 0.0000 74.3600 59.4440 0.0000
77.2200 59.4440 0.0000 80.0800 59.4440 0.0000 82.9400 59.4440 0.0000
85.8000 59.4440 0.0000 88.6600 59.4440 0.0000 91.5200 59.4440 0.0000
94.3800 59.4440 0.0000 97.2400 59.4440 0.0000 100.1000 59.4440 0.0000
102.9600 59.4440 0.0000 105.8200 59.4440 0.0000 108.6800 59.4440 0.0000
111.5400 59.4440 0.0000 114.4000 59.4440 0.0000 117.2600 59.4440 0.0000
35.7500 61.9208 0.0000 38.6100 61.9208 0.0000 41.4700 61.9208 0.0000
44.3300 61.9208 0.0000 47.1900 61.9208 0.0000 50.0500 61.9208 0.0000
52.9100 61.9208 0.0000 55.7700 61.9208 0.0000 58.6300 61.9208 0.0000
61.4900 61.9208 0.0000 64.3500 61.9208 0.0000 67.2100 61.9208 0.0000
70.0700 61.9208 0.0000 72.9300 61.9208 0.0000 75.7900 61.9208 0.0000
78.6500 61.9208 0.0000 81.5100 61.9208 0.0000 84.3700 61.9208 0.0000
87.2300 61.9208 0.0000 90.0900 61.9208 0.0000 92.9500 61.9208 0.0000
95.8100 61.9208 0.0000 98.6700 61.9208 0.0000 101.5300 61.9208 0.0000
104.3900 61.9208 0.0000 107.2500 61.9208 0.0000 110.1100 61.9208 0.0000
112.9700 61.9208 0.0000 115.8300 61.9208 0.0000 118.6900 61.9208 0.0000
37.1800 64.3976 0.0000 40.0400 64.3976 0.0000 42.9000 64.3976 0.0000
45.7600 64.3976 0.0000 48.6200 64.3976 0.0000 51.4800 64.3976 0.0000
54.3400 64.3976 0.0000 57.2000 64.3976 0.0000 60.0600 64.3976 0.0000
62.9200 64.3976 0.0000 65.7800 64.3976 0.0000 68.6400 64.3976 0.0000
71.5000 64.3976 0.0000 74.3600 64.3976 0.0000 77.2200 64.3976 0.0000
80.0800 64.3976 0.0000 82.9400 64.3976 0.0000 85.8000 64.3976 0.0000
88.6600 64.3976 0.0000 91.5200 64.3976 0.0000 94.3800 64.3976 0.0000
97.2400 64.3976 0.0000 100.1000 64.3976 0.0000 102.9600 64.3976 0.0000
105.8200 64.3976 0.0000 108.6800 64.3976 0.0000 111.5400 64.3976 0.0000
114.4000 64.3976 0.0000 117.2600 64.3976 0.0000 120.1200 64.3976 0.0000

POINT_DATA 810
SCALARS correlation_coefficient double
LOOKUP_TABLE default
0.0
0.0
0.0
0.0
0.0
0.0
0.0
0.0
0.0
0.0
0.0
0.0
0.0
0.0
0.0
0.0
0.0
0.0
0.0
0.0
0.0
0.0
0.0
0.0
0.0
0.0
0.0
0.0
0.0
0.0
0.0
0.0
0.0
0.0
0.0
0.0
0.0
0.0
0.0
0.0
0.0
0.0
0.0
0.0
0.0
0.0
0.0
0.0
0.0
0.0
0.0
0.0
0.0
0.0
0.0
0.0
0.0
0.0
0.0
0.0
0.0
0.0
0.0
0.0
0.0
0.0
0.0
0.0
0.0
0.0
0.0
0.0
0.0
0.0
0.0
0.0
0.0
0.0
0.0
0.0
0.0
0.0
0.0
0.0
0.0
0.0
0.0
0.0
0.0
0.0
0.0
0.0
0.0
0.0
0.0
0.0
0.0
0.0
0.0
0.0
0.0
0.0
0.0
0.0
0.0
0.0
0.0
0.0
0.0
0.0
0.0
0.0
0.0
0.0
0.0
0.0
0.0
0.0
0.0
0.0
0.0
0.0
0.0
0.0
0.0
0.0
0.0
0.0
0.0
0.0
0.0
0.0
0.0
0.0
0.0
0.0
0.0
0.0
0.0
0.0
0.0
0.0
0.0
0.0
0.0
0.0
0.0
0.0
0.0
0.0
0.0
0.0
0.0
0.0
0.0
0.0
0.0
0.0
0.0
0.0
0.0
0.0
0.0
0.0
0.0
0.0
0.0
0.0
0.0
0.0
0.0
0.0
0.0
0.0
0.0
0.0
0.0
0.0
0.0
0.0
0.0
0.0
0.0
0.0
0.0
0.0
0.0
0.0
0.0
0.0
0.0
0.0
0.0
0.0
0.0
0.0
0.0
0.0
0.0
0.0
0.0
0.0
0.0
0.0
0.0
0.0
0.0
0.0
0.0
0.0
0.0
0.0
0.0
0.0
0.0
0.0
0.0
0.0
0.0
0.0
0.0
0.0
0.0
0.0
0.0
0.0
0.0
0.0
0.0
0.0
0.0
0.0
0.0
0.0
0.0
0.0
0.0
0.0
0.0
0.0
0.0
0.0
0.0
0.0
0.0
0.0
0.0
0.0
0.0
0.0
0.0
0.0
0.0
0.0
0.0
0.0
0.0
0.0
0.0
0.0
0.0
0.0
0.0
0.0
0.0
0.0
0.0
0.0
0.0
0.0
0.0
0.0
0.0
0.0
0.0
0.0
0.0
0.0
0.0
0.0
0.0
0.0
0.0
0.0
0.0
0.0
0.0
0.0
0.0
0.0
0.0
0.0
0.0
0.0
0.0
0.0
0.0
0.0
0.0
0.0
0.0
0.0
0.0
0.0
0.0
0.0
0.0
0.0
0.0
0.0
0.0
0.0
0.0
0.0
0.0
0.0
0.0
0.0
0.0
0.0
0.0
0.0
0.0
0.0
0.0
0.0
0.0
0.0
0.0
0.0
0.0
0.0
0.0
0.0
0.0
0.0
0.0
0.0
0.0
0.0
0.0
0.0
0.0
0.0
0.0
0.0
0.0
0.0
0.0
0.0
0.0
0.0
0.0
0.0
0.0
0.0
0.0
0.0
0.0
0.0
0.0
0.0
0.0
0.0
0.0
0.0
0.0
0.0
0.0
0.0
0.0
0.0
0.0
0.0
0.0
0.0
0.0
0.0
0.0
0.0
0.0
0.0
0.0
0.0
0.0
0.0
0.0
0.0
0.0
0.0
0.0
0.0
0.0
0.0
0.0
0.0
0.0
0.0
0.0
0.0
0.0
0.0
0.0
0.0
1.349248073866818
0.0
0.0
0.0
0.0
0.0
0.0
0.0
0.0
0.0
0.0
0.0
0.0
0.0
0.0
0.0
0.0
0.0
0.0
0.0
0.0
0.0
0.0
0.0
0.0
0.0
0.0
0.0
0.0
0.0
0.0
0.0
0.0
0.0
0.0
0.0
0.0
0.0
0.0
0.0
0.0
0.0
0.0
0.0
0.0
0.0
0.0
0.0
0.0
0.0
0.0
0.0
0.0
0.0
0.0
0.0
0.0
0.0
0.0
0.0
0.0
0.0
0.0
0.0
0.0
0.0
0.0
0.0
0.0
0.0
0.0
0.0
0.0
0.0
0.0
0.0
0.0
0.0
0.0
0.0
0.0
0.0
0.0
0.0
0.0
0.0
0.0
0.0
0.0
0.0
0.0
0.0
0.0
0.0
0.0
0.0
0.0
0.0
0.0
0.0
0.0
0.0
0.0
0.0
0.0
0.0
0.0
0.0
0.0
0.0
0.0
0.0
0.0
0.0
0.0
0.0
0.0
0.0
0.0
0.0
0.0
0.0
0.0
0.0
0.0
0.0
0.0
0.0
0.0
0.0
0.0
0.0
0.0
0.0
0.0
0.0
0.0
0.0
0.0
0.0
0.0
0.0
0.0
0.0
0.0
0.0
0.0
0.0
0.0
0.0
0.0
0.0
0.0
0.0
0.0
0.0
0.0
0.0
0.0
0.0
0.0
0.0
0.0
0.0
0.0
0.0
0.0
0.0
0.0
0.0
0.0
0.0
0.0
0.0
0.0
0.0
0.0
0.0
0.0
0.0
0.0
0.0
0.0
0.0
0.0
0.0
0.0
0.0
0.0
0.0
0.0
0.0
0.0
0.0
0.0
0.0
0.0
0.0
0.0
0.0
0.0
0.0
0.0
0.0
0.0
0.0
0.0
0.0
0.0
0.0
0.0
0.0
0.0
0.0
0.0
0.0
0.0
0.0
0.0
0.0
0.0
0.0
0.0
0.0
0.0
0.0
0.0
0.0
0.0
0.0
0.0
0.0
0.0
0.0
0.0
0.0
0.0
0.0
0.0
0.0
0.0
0.0
0.0
0.0
0.0
0.0
0.0
0.0
0.0
0.0
0.0
0.0
0.0
0.0
0.0
0.0
0.0
0.0
0.0
0.0
0.0
0.0
0.0
0.0
0.0
0.0
0.0
0.0
0.0
0.0
0.0
0.0
0.0
0.0
0.0
0.0
0.0
0.0
0.0
0.0
0.0
0.0
0.0
0.0
0.0
0.0
0.0
0.0
0.0
0.0
0.0
0.0
0.0
0.0
0.0
0.0
0.0
0.0
0.0
0.0
0.0
0.0
0.0
0.0
0.0
0.0
0.0
0.0
0.0
0.0
0.0
0.0
0.0
0.0
0.0
0.0
0.0
0.0
0.0
0.0
0.0
0.0
0.0
0.0
0.0
0.0
0.0
0.0
0.0
0.0
0.0
0.0
0.0
0.0
0.0
0.0
0.0
0.0
0.0
0.0
0.0
0.0
0.0
0.0
0.0
0.0
0.0
0.0
0.0
0.0
0.0
0.0
0.0
0.0
0.0
0.0
0.0
0.0
0.0
0.0
0.0
0.0
0.0
0.0
0.0
0.0
0.0
0.0
0.0
0.0
0.0
0.0
0.0
0.0
0.0
0.0
0.0
0.0
0.0
0.0
0.0
0.0
0.0
0.0
0.0
0.0
0.0
0.0
0.0
0.0
0.0
0.0
0.0
0.0
0.0
0.0
0.0
0.0
0.0
0.0
0.0
0.0
0.0
0.0
0.0
0.0

VECTORS lattice_basis1 double
89.853 0 0
VECTORS lattice_basis2 double
40.63565057065618 70.38301138699174 0
