# vtk DataFile Version 3.0
# correlation data
ASCII
DATASET STRUCTURED_GRID
DIMENSIONS 100 100 1
POINTS 10000 double
0.0000 0.0000 0.0000 1.9517 0.0000 0.0000 3.9034 0.0000 0.0000
5.8550 0.0000 0.0000 7.8067 0.0000 0.0000 9.7584 0.0000 0.0000
11.7101 0.0000 0.0000 13.6618 0.0000 0.0000 15.6134 0.0000 0.0000
17.5651 0.0000 0.0000 19.5168 0.0000 0.0000 21.4685 0.0000 0.0000
23.4202 0.0000 0.0000 25.3718 0.0000 0.0000 27.3235 0.0000 0.0000
29.2752 0.0000 0.0000 31.2269 0.0000 0.0000 33.1786 0.0000 0.0000
35.1302 0.0000 0.0000 37.0819 0.0000 0.0000 39.0336 0.0000 0.0000
40.9853 0.0000 0.0000 42.9370 0.0000 0.0000 44.8886 0.0000 0.0000
46.8403 0.0000 0.0000 48.7920 0.0000 0.0000 50.7437 0.0000 0.0000
52.6954 0.0000 0.0000 54.6470 0.0000 0.0000 56.5987 0.0000 0.0000
58.5504 0.0000 0.0000 60.5021 0.0000 0.0000 62.4538 0.0000 0.0000
64.4054 0.0000 0.0000 66.3571 0.0000 0.0000 68.3088 0.0000 0.0000
70.2605 0.0000 0.0000 72.2122 0.0000 0.0000 74.1638 0.0000 0.0000
76.1155 0.0000 0.0000 78.0672 0.0000 0.0000 80.0189 0.0000 0.0000
81.9706 0.0000 0.0000 83.9222 0.0000 0.0000 85.8739 0.0000 0.0000
87.8256 0.0000 0.0000 89.7773 0.0000 0.0000 91.7290 0.0000 0.0000
93.6806 0.0000 0.0000 95.6323 0.0000 0.0000 97.5840 0.0000 0.0000
99.5357 0.0000 0.0000 101.4873 0.0000 0.0000 103.4390 0.0000 0.0000
105.3907 0.0000 0.0000 107.3424 0.0000 0.0000 109.2941 0.0000 0.0000
111.2457 0.0000 0.0000 113.1974 0.0000 0.0000 115.1491 0.0000 0.0000
117.1008 0.0000 0.0000 119.0525 0.0000 0.0000 121.0041 0.0000 0.0000
122.9558 0.0000 0.0000 124.9075 0.0000 0.0000 126.8592 0.0000 0.0000
128.8109 0.0000 0.0000 130.7625 0.0000 0.0000 132.7142 0.0000 0.0000
134.6659 0.0000 0.0000 136.6176 0.0000 0.0000 138.5693 0.0000 0.0000
140.5209 0.0000 0.0000 142.4726 0.0000 0.0000 144.4243 0.0000 0.0000
146.3760 0.0000 0.0000 148.3277 0.0000 0.0000 150.2793 0.0000 0.0000
152.2310 0.0000 0.0000 154.1827 0.0000 0.0000 156.1344 0.0000 0.0000
158.0861 0.0000 0.0000 160.0377 0.0000 0.0000 161.9894 0.0000 0.0000
163.9411 0.0000 0.0000 165.8928 0.0000 0.0000 167.8445 0.0000 0.0000
169.7961 0.0000 0.0000 171.7478 0.0000 0.0000 173.6995 0.0000 0.0000
175.6512 0.0000 0.0000 177.6029 0.0000 0.0000 179.5545 0.0000 0.0000
181.5062 0.0000 0.0000 183.4579 0.0000 0.0000 185.4096 0.0000 0.0000
187.3613 0.0000 0.0000 189.3129 0.0000 0.0000 191.2646 0.0000 0.0000
193.2163 0.0000 0.0000 0.0000 1.7947 0.0000 1.9517 1.7947 0.0000
3.9034 1.7947 0.0000 5.8550 1.7947 0.0000 7.8067 1.7947 0.0000
9.7584 1.7947 0.0000 11.7101 1.7947 0.0000 13.6618 1.7947 0.0000
15.6134 1.7947 0.0000 17.5651 1.7947 0.0000 19.5168 1.7947 0.0000
21.4685 1.7947 0.0000 23.4202 1.7947 0.0000 25.3718 1.7947 0.0000
27.3235 1.7947 0.0000 29.2752 1.7947 0.0000 31.2269 1.7947 0.0000
33.1786 1.7947 0.0000 35.1302 1.7947 0.0000 37.0819 1.7947 0.0000
39.0336 1.7947 0.0000 40.9853 1.7947 0.0000 42.9370 1.7947 0.0000
44.8886 1.7947 0.0000 46.8403 1.7947 0.0000 48.7920 1.7947 0.0000
50.7437 1.7947 0.0000 52.6954 1.7947 0.0000 54.6470 1.7947 0.0000
56.5987 1.7947 0.0000 58.5504 1.7947 0.0000 60.5021 1.7947 0.0000
62.4538 1.7947 0.0000 64.4054 1.7947 0.0000 66.3571 1.7947 0.0000
68.3088 1.7947 0.0000 70.2605 1.7947 0.0000 72.2122 1.7947 0.0000
74.1638 1.7947 0.0000 76.1155 1.7947 0.0000 78.0672 1.7947 0.0000
80.0189 1.7947 0.0000 81.9706 1.7947 0.0000 83.9222 1.7947 0.0000
85.8739 1.7947 0.0000 87.8256 1.7947 0.0000 89.7773 1.7947 0.0000
91.7290 1.7947 0.0000 93.6806 1.7947 0.0000 95.6323 1.7947 0.0000
97.5840 1.7947 0.0000 99.5357 1.7947 0.0000 101.4873 1.7947 0.0000
103.4390 1.7947 0.0000 105.3907 1.7947 0.0000 107.3424 1.7947 0.0000
109.2941 1.7947 0.0000 111.2457 1.7947 0.0000 113.1974 1.7947 0.0000
115.1491 1.7947 0.0000 117.1008 1.7947 0.0000 119.0525 1.7947 0.0000
121.0041 1.7947 0.0000 122.9558 1.7947 0.0000 124.9075 1.7947 0.0000
126.8592 1.7947 0.0000 128.8109 1.7947 0.0000 130.7625 1.7947 0.0000
132.7142 1.7947 0.0000 134.6659 1.7947 0.0000 136.6176 1.7947 0.0000
138.5693 1.7947 0.0000 140.5209 1.7947 0.0000 142.4726 1.7947 0.0000
144.4243 1.7947 0.0000 146.3760 1.7947 0.0000 148.3277 1.7947 0.0000
150.2793 1.7947 0.0000 152.2310 1.7947 0.0000 154.1827 1.7947 0.0000
156.1344 1.7947 0.0000 158.0861 1.7947 0.0000 160.0377 1.7947 0.0000
161.9894 1.7947 0.0000 163.9411 1.7947 0.0000 165.8928 1.7947 0.0000
167.8445 1.7947 0.0000 169.7961 1.7947 0.0000 171.7478 1.7947 0.0000
173.6995 1.7947 0.0000 175.6512 1.7947 0.0000 177.6029 1.7947 0.0000
179.5545 1.7947 0.0000 181.5062 1.7947 0.0000 183.4579 1.7947 0.0000
185.4096 1.7947 0.0000 187.3613 1.7947 0.0000 189.3129 1.7947 0.0000
191.2646 1.7947 0.0000 193.2163 1.7947 0.0000 0.0000 3.5894 0.0000
1.9517 3.5894 0.0000 3.9034 3.5894 0.0000 5.8550 3.5894 0.0000
7.8067 3.5894 0.0000 9.7584 3.5894 0.0000 11.7101 3.5894 0.0000
13.6618 3.5894 0.0000 15.6134 3.5894 0.0000 17.5651 3.5894 0.0000
19.5168 3.5894 0.0000 21.4685 3.5894 0.0000 23.4202 3.5894 0.0000
25.3718 3.5894 0.0000 27.3235 3.5894 0.0000 29.2752 3.5894 0.0000
31.2269 3.5894 0.0000 33.1786 3.5894 0.0000 35.1302 3.5894 0.0000
37.0819 3.5894 0.0000 39.0336 3.5894 0.0000 40.9853 3.5894 0.0000
42.9370 3.5894 0.0000 44.8886 3.5894 0.0000 46.8403 3.5894 0.0000
48.7920 3.5894 0.0000 50.7437 3.5894 0.0000 52.6954 3.5894 0.0000
54.6470 3.5894 0.0000 56.5987 3.5894 0.0000 58.5504 3.5894 0.0000
60.5021 3.5894 0.0000 62.4538 3.5894 0.0000 64.4054 3.5894 0.0000
66.3571 3.5894 0.0000 68.3088 3.5894 0.0000 70.2605 3.5894 0.0000
72.2122 3.5894 0.0000 74.1638 3.5894 0.0000 76.1155 3.5894 0.0000
78.0672 3.5894 0.0000 80.0189 3.5894 0.0000 81.9706 3.5894 0.0000
83.9222 3.5894 0.0000 85.8739 3.5894 0.0000 87.8256 3.5894 0.0000
89.7773 3.5894 0.0000 91.7290 3.5894 0.0000 93.6806 3.5894 0.0000
95.6323 3.5894 0.0000 97.5840 3.5894 0.0000 99.5357 3.5894 0.0000
101.4873 3.5894 0.0000 103.4390 3.5894 0.0000 105.3907 3.5894 0.0000
107.3424 3.5894 0.0000 109.2941 3.5894 0.0000 111.2457 3.5894 0.0000
113.1974 3.5894 0.0000 115.1491 3.5894 0.0000 117.1008 3.5894 0.0000
119.0525 3.5894 0.0000 121.0041 3.5894 0.0000 122.9558 3.5894 0.0000
124.9075 3.5894 0.0000 126.8592 3.5894 0.0000 128.8109 3.5894 0.0000
130.7625 3.5894 0.0000 132.7142 3.5894 0.0000 134.6659 3.5894 0.0000
136.6176 3.5894 0.0000 138.5693 3.5894 0.0000 140.5209 3.5894 0.0000
142.4726 3.5894 0.0000 144.4243 3.5894 0.0000 146.3760 3.5894 0.0000
148.3277 3.5894 0.0000 150.2793 3.5894 0.0000 152.2310 3.5894 0.0000
154.1827 3.5894 0.0000 156.1344 3.5894 0.0000 158.0861 3.5894 0.0000
160.0377 3.5894 0.0000 161.9894 3.5894 0.0000 163.9411 3.5894 0.0000
165.8928 3.5894 0.0000 167.8445 3.5894 0.0000 169.7961 3.5894 0.0000
171.7478 3.5894 0.0000 173.6995 3.5894 0.0000 175.6512 3.5894 0.0000
177.6029 3.5894 0.0000 179.5545 3.5894 0.0000 181.5062 3.5894 0.0000
183.4579 3.5894 0.0000 185.4096 3.5894 0.0000 187.3613 3.5894 0.0000
189.3129 3.5894 0.0000 191.2646 3.5894 0.0000 193.2163 3.5894 0.0000
0.0000 5.3841 0.0000 1.9517 5.3841 0.0000 3.9034 5.3841 0.0000
5.8550 5.3841 0.0000 7.8067 5.3841 0.0000 9.7584 5.3841 0.0000
11.7101 5.3841 0.0000 13.6618 5.3841 0.0000 15.6134 5.3841 0.0000
17.5651 5.3841 0.0000 19.5168 5.3841 0.0000 21.4685 5.3841 0.0000
23.4202 5.3841 0.0000 25.3718 5.3841 0.0000 27.3235 5.3841 0.0000
29.2752 5.3841 0.0000 31.2269 5.3841 0.0000 33.1786 5.3841 0.0000
35.1302 5.3841 0.0000 37.0819 5.3841 0.0000 39.0336 5.3841 0.0000
40.9853 5.3841 0.0000 42.9370 5.3841 0.0000 44.8886 5.3841 0.0000
46.8403 5.3841 0.0000 48.7920 5.3841 0.0000 50.7437 5.3841 0.0000
52.6954 5.3841 0.0000 54.6470 5.3841 0.0000 56.5987 5.3841 0.0000
58.5504 5.3841 0.0000 60.5021 5.3841 0.0000 62.4538 5.3841 0.0000
64.4054 5.3841 0.0000 66.3571 5.3841 0.0000 68.3088 5.3841 0.0000
70.2605 5.3841 0.0000 72.2122 5.3841 0.0000 74.1638 5.3841 0.0000
76.1155 5.3841 0.0000 78.0672 5.3841 0.0000 80.0189 5.3841 0.0000
81.9706 5.3841 0.0000 83.9222 5.3841 0.0000 85.8739 5.3841 0.0000
87.8256 5.3841 0.0000 89.7773 5.3841 0.0000 91.7290 5.3841 0.0000
93.6806 5.3841 0.0000 95.6323 5.3841 0.0000 97.5840 5.3841 0.0000
99.5357 5.3841 0.0000 101.4873 5.3841 0.0000 103.4390 5.3841 0.0000
105.3907 5.3841 0.0000 107.3424 5.3841 0.0000 109.2941 5.3841 0.0000
111.2457 5.3841 0.0000 113.1974 5.3841 0.0000 115.1491 5.3841 0.0000
117.1008 5.3841 0.0000 119.0525 5.3841 0.0000 121.0041 5.3841 0.0000
122.9558 5.3841 0.0000 124.9075 5.3841 0.0000 126.8592 5.3841 0.0000
128.8109 5.3841 0.0000 130.7625 5.3841 0.0000 132.7142 5.3841 0.0000
134.6659 5.3841 0.0000 136.6176 5.3841 0.0000 138.5693 5.3841 0.0000
140.5209 5.3841 0.0000 142.4726 5.3841 0.0000 144.4243 5.3841 0.0000
146.3760 5.3841 0.0000 148.3277 5.3841 0.0000 150.2793 5.3841 0.0000
152.2310 5.3841 0.0000 154.1827 5.3841 0.0000 156.1344 5.3841 0.0000
158.0861 5.3841 0.0000 160.0377 5.3841 0.0000 161.9894 5.3841 0.0000
163.9411 5.3841 0.0000 165.8928 5.3841 0.0000 167.8445 5.3841 0.0000
169.7961 5.3841 0.0000 171.7478 5.3841 0.0000 173.6995 5.3841 0.0000
175.6512 5.3841 0.0000 177.6029 5.3841 0.0000 179.5545 5.3841 0.0000
181.5062 5.3841 0.0000 183.4579 5.3841 0.0000 185.4096 5.3841 0.0000
187.3613 5.3841 0.0000 189.3129 5.3841 0.0000 191.2646 5.3841 0.0000
193.2163 5.3841 0.0000 0.0000 7.1788 0.0000 1.9517 7.1788 0.0000
3.9034 7.1788 0.0000 5.8550 7.1788 0.0000 7.8067 7.1788 0.0000
9.7584 7.1788 0.0000 11.7101 7.1788 0.0000 13.6618 7.1788 0.0000
15.6134 7.1788 0.0000 17.5651 7.1788 0.0000 19.5168 7.1788 0.0000
21.4685 7.1788 0.0000 23.4202 7.1788 0.0000 25.3718 7.1788 0.0000
27.3235 7.1788 0.0000 29.2752 7.1788 0.0000 31.2269 7.1788 0.0000
33.1786 7.1788 0.0000 35.1302 7.1788 0.0000 37.0819 7.1788 0.0000
39.0336 7.1788 0.0000 40.9853 7.1788 0.0000 42.9370 7.1788 0.0000
44.8886 7.1788 0.0000 46.8403 7.1788 0.0000 48.7920 7.1788 0.0000
50.7437 7.1788 0.0000 52.6954 7.1788 0.0000 54.6470 7.1788 0.0000
56.5987 7.1788 0.0000 58.5504 7.1788 0.0000 60.5021 7.1788 0.0000
62.4538 7.1788 0.0000 64.4054 7.1788 0.0000 66.3571 7.1788 0.0000
68.3088 7.1788 0.0000 70.2605 7.1788 0.0000 72.2122 7.1788 0.0000
74.1638 7.1788 0.0000 76.1155 7.1788 0.0000 78.0672 7.1788 0.0000
[...]
POINT_DATA 10000
SCALARS correlation_coefficient double
LOOKUP_TABLE default
2109281920319933.2
1094959319338737.4
-234464575953196.38
-1034284302291276.6
2560433546788560.0
-1617962744680120.0
-607836594395401.0
-1528481650958076.5
-2423295858254739.5
2579371268909816.0
1066395385052459.5
-29295060467998.875
583523601295061.4
442658830730797.6
114358656045736.75
485843810346625.2
-552474998656415.3
-623423100701306.4
254616348005670.53
509903609722528.56
-659127096073409.6
495347341220343.06
142188254000775.28
-1467011853231231.2
-1102782002366417.1
1943218235654336.5
-212395436391731.6
-1185972035303015.5
-181924189558083.3
499662980585743.1
568289019814757.1
-1442448694490113.8
-2758344644882661.0
-74118396244025.92
3263646735653575.0
-576952876463053.1
-2230147290821482.2
881088818050771.1
1084218005971023.4
-2250209707344107.2
-997795748409135.8
-39027839381554.84
27841691176726.027
1171830235371629.0
301518791938982.0
664592475658004.1
1714778861394777.8
-282182515403216.94
-2623842524417899.0
-806545943296665.0
636297197981658.4
-806545943296657.4
-2623842524417898.0
-282182515403218.56
1714778861394787.5
664592475658011.8
301518791938986.94
1171830235371638.2
27841691176721.746
-39027839381550.35
-997795748409141.1
-2250209707344103.8
1084218005971022.2
881088818050768.1
-2230147290821486.5
-576952876463053.2
3263646735653572.0
-74118396244028.84
-2758344644882665.5
-1442448694490113.2
568289019814750.1
499662980585748.7
-181924189558088.16
-1185972035303012.8
-212395436391731.78
1943218235654341.2
-1102782002366425.2
-1467011853231235.2
142188254000787.0
495347341220337.3
-659127096073415.0
509903609722523.1
254616348005662.3
-623423100701296.5
-552474998656405.75
485843810346628.8
114358656045733.05
442658830730792.8
583523601295054.4
-29295060467989.973
1066395385052456.1
2579371268909803.5
-2423295858254735.5
-1528481650958072.2
-607836594395409.9
-1617962744680122.5
2560433546788562.5
-1034284302291276.9
-234464575953186.12
1094959319338732.4
1473447673660784.5
-855066700796136.2
-1665533574229456.8
-958263831274809.6
1137203429625157.5
-2210596868665142.0
40880007255128.54
191960208253064.8
-2287584090320711.0
1934847913960067.5
1640954064993907.5
-2281219103173777.5
-1097470672505537.4
-1068908752695997.5
236519050654781.56
696251604439669.9
-372699699172984.9
-806491746104663.0
375097855071568.8
2334943107952216.5
-253279400903721.0
-479722838173745.25
304153688743487.3
-709956160932812.0
1750048353703167.8
3348257157412683.5
351426125264487.75
-948059564410830.6
1501240206553598.8
843766599217718.2
187513395702697.78
-356990218216367.44
-2331017897142110.0
-631340584311141.4
3189328303581117.5
1042701501036283.0
-1326785067900592.8
1826821324170998.5
12083779705625.146
-1705063412963948.0
-1249406108768744.8
-251481419522065.88
616623951260018.9
2784933854999083.5
1408594809071342.2
-744119855918754.6
134112982724255.05
912040614107605.1
-1942577457737510.2
-692525907723134.9
1025628460766861.1
-1702966501987565.8
-1127879408009410.0
414807744032303.9
1453176895470222.8
385103025174098.56
-2082415367516673.2
-452248304647567.0
437821770522000.7
-504488605549827.1
62133872279195.72
43358207310829.2
2427399890692175.5
-293932288162205.7
-858779215768972.5
-911512841078132.5
1845554097019316.2
-547324137072297.0
-2197425323739151.2
-1268463027981256.5
442369144502340.6
645988261315381.4
-886924961360174.1
92282944345172.56
1933861825004941.8
1759479991492664.5
-2470936666994150.0
-146218596194247.3
673598817046185.1
1326467262773632.8
292061267153060.4
32707036557665.93
-241645502359302.47
-398124601423772.2
1126504179339915.0
654772930750597.8
-635485192089056.0
584652005800468.0
-580716612744164.0
296851725305700.9
-104315174604312.23
1090397095098379.0
-826195998555560.9
-677773620180020.8
-749362403256014.8
-2330336304704605.5
1890202016568910.5
-416821560957417.3
1234561969869244.5
2621717354363540.5
1032563869686043.2
-2180745934829604.0
-783258578477183.2
2424896206056935.5
507151915259866.7
-2187116719421134.5
1123983642941261.1
285558894854877.9
-2699219978950431.5
-408698920763373.5
2480922645645019.0
-1483264830618802.2
-1067190664311033.9
-808537198563893.4
448587319684153.06
-486168227458464.9
-574323673489030.2
-1724191333180393.0
-1017481220395811.6
2064369533218463.5
-495454847104701.7
-927914708621283.1
988719817222173.9
814054134222661.2
2303094182367420.5
1497233621745473.2
-57313733698103.49
-1760996883875500.5
746304658890205.1
804774063915929.2
531755697700293.6
62217793623855.63
-540046449452294.6
-261245991351982.88
2883378259293046.5
1809065374034316.5
-1176576972306457.5
721547366400350.4
-1549029834983380.2
-693039386773374.5
317303556434530.7
-85207954724327.83
-132586077518680.06
410254263267710.0
1278481633610544.8
-751664758285141.6
-608477766554972.5
1386537031280168.5
-413273091596318.2
-996352119494422.9
1277189203210051.8
-2502009632622802.0
-69978250070625.07
1091213643093024.5
1382883959073374.8
2069183143492588.5
-1465518824926821.8
783652651768952.1
2248130663471549.8
-1705424700499896.8
-1887882379428914.0
-588452843518409.8
110325129280816.03
-961058269215129.8
2767514370560912.0
2108762051595938.8
374160968690203.6
-2048394006172659.5
-2376995382783769.0
2718338886351.0986
3048880269805185.5
3693520282879537.5
-297011035029867.7
-1691909604682087.5
1235095400321228.0
1485809866733210.8
-3418088603688071.0
-623226338606971.6
-351378925351509.9
121996280510145.22
801568021508197.2
118681045394026.22
-185645525281680.16
-253081880580390.28
2254216673764759.0
-272858700091687.22
-1813224436756229.2
529711938526793.7
-670795855980167.6
1222781746730703.2
694819186060646.4
-1641384861244493.5
-892738165814829.9
1024163721963489.4
579654408778939.5
-834895984520630.6
269213151013739.03
-1390694920914366.0
-721124791734186.5
2888713076151546.0
-166813644981682.97
-1597791469187341.0
-759346393410688.2
2513911762828110.0
-214490768128592.72
-2803993431218745.5
2274819952025752.0
2229848942052138.8
-1929722165320580.0
-1941921989091225.0
3390617310392923.5
52165920025685.38
-194764350854362.9
1069063872774167.9
2668391078835385.5
-866705192407891.8
-819058282098298.4
197294740342377.06
493270098594759.1
1724879416564003.5
-829806825225255.1
-813570549726348.5
1900757441523045.0
1444548535070943.8
525956775443178.8
-1752037548923371.5
-887643865108107.2
-753338170537758.4
625574351795467.0
1307782761553259.2
1471850759584448.5
-896622927284679.5
-110053785735264.95
503799380791507.9
734520096313263.1
-648430204037576.4
-2566911218430940.0
938661773396616.2
-818038708419821.5
-1478722998233595.0
-105119010639413.86
575879242079506.2
-630113237005595.6
-1652911643536414.5
2685724929582266.0
654420073919717.9
501839501224939.06
1999991765683729.2
1846280356006871.2
-93464971153885.83
644125257339086.8
-1354793806670356.2
-123670853148964.25
-199638827683683.16
-236850400788199.47
2309222752454855.0
-40026804518389.24
-862168597152780.4
2647475288356953.0
-527456875959283.06
-2520231439714413.5
-1098305942697320.6
-198968365136310.62
471076902396244.2
2507781025233311.0
2107062760478980.5
-1013000156733621.4
-3639053496069719.5
-2920780107710798.5
61034812453124.93
2422249153052653.0
769534615035503.2
307588610671458.0
-657251116512890.2
-679435139382526.5
173883071011169.7
-2364181420311239.0
174027482375604.16
1639745625736496.2
632848461665920.1
393844800588826.4
-277268558064118.38
54751175181155.38
-250808799497866.44
1686043351845015.5
-1847348733430580.2
-3290814405549103.5
628214776349585.2
-824643062282987.0
1117204308524688.6
2611159339087371.5
-1970993360733193.8
-1031986384874125.2
2081325859129191.2
563680122792776.4
1582626500918477.0
-1076589872762799.1
-1162057022207665.2
-1226345263342022.0
789915972230493.0
-1106311992020865.1
852860254425031.9
-76113343256211.17
1109842324687144.8
1261170646086579.5
-2084215735113184.0
1608655026281713.0
2492895219310603.0
-1019591588313367.0
-2404406628272284.5
3948784512594032.5
2807806674115396.0
663168456362550.1
1301916428537722.8
402143879076312.25
-3635940291364355.5
-2341011436441040.0
1322722163060966.5
632390145103473.1
301654178944658.0
-1477028110916812.5
-1725472189882177.5
1554145598893022.2
470133584055007.2
-919840254552467.6
-2460478471124301.5
-1126763449195854.5
47349556045962.03
1031015164752579.9
1091917498645431.0
-730707572398572.0
-1811213533139857.2
685363140897321.9
2312432027987764.0
-388120238792229.6
-2554918665280438.5
-3214087766184739.5
1418395004527724.0
1384549227078265.5
-947723329492565.1
-854271731596135.8
1129198480355111.8
-999320192097578.2
-3445843495502509.5
2756595186340864.0
376396690658346.1
-1167763533261402.2
243194802851348.88
2552306109129145.5
647151370048378.4
-1352613313598942.2
407506322296895.1
-546655678779666.4
-1230492567680440.2
351047664131347.0
1720916963443673.2
1021406456486369.4
-3257162175955256.5
2292655196191928.5
782951171009058.9
-2097486799833504.5
-959345133700994.8
278819607676147.3
760596612916646.5
909514876175999.5
1202910351593992.8
-658658195120705.1
-1784168184615866.2
254048227124697.9
1096786447200614.2
934520912028841.2
-1420726201599944.0
1798342314920609.2
1634932745848808.2
-3307768033307517.5
-2542946105409217.5
-1828298642518847.5
332365644851272.44
447507275731872.25
-288337412005586.44
949028423088077.5
1005213632154646.9
-1023186317860902.1
-2290514991940007.0
624441597259204.8
-278054502618146.47
-1195261528206359.0
1503287154642563.8
-968002464738298.9
277681531917036.72
2716388949053337.0
-401240872678630.7
-184508983532841.2
2823915439519155.5
-721402610838617.6
1487617953775393.8
-2798720823418301.0
-384255399659057.4
263243117200486.1
-2346606125292373.0
-1583641526588218.8
575559949455879.1
6679253455987.359
426822944066008.06
1972328805816873.8
-1912950530386584.0
926300402304475.6
1511240856663145.5
-741479318051330.9
-1409569409143654.0
1881237135132476.8
1179078144746251.0
-1316710888072326.5
1630162857725742.2
-211476553549507.56
-2776922909904529.0
155832316109193.38
2469958708751593.0
-721049890143955.1
1271388172842365.0
1380173852679272.0
-791072720419729.2
2111430819022883.5
502317868494053.4
-1349398877351753.0
-1838634981582372.8
58748080476763.41
-88287759125155.86
-11185533327251.521
1153219540469790.0
-1998731112162439.0
-2325330626745381.5
275280291976891.5
1851089019023343.5
-1281542419431291.8
-2568423245828601.5
-3005404472566976.0
679224158928192.8
1412525466547478.2
-1746199739048985.8
-2443723681488545.0
1304258241130814.8
91548462309975.06
-4543954354521449.0
2922025523680456.5
1034882537863292.6
-2564994514757826.5
-993462579931435.0
2518004801562478.0
352040410881654.1
-3051370188589541.0
-1214696820631673.8
-37639641219415.23
-399404123748712.8
1157528223010123.5
890786389695690.0
1395643007137661.8
-2674353837843153.0
2687242854925911.0
2057752274191495.2
-1210459811803975.0
-934183787467616.4
729865794955623.9
1463088045391502.8
-849830427928159.2
-1257257621773758.5
-755140523803893.2
-61305646169590.7
2209918470333290.0
1101365170452705.6
638336176483342.6
-1695915847144741.0
1652310835582436.0
1724934570209700.8
-3975676928033715.5
-1077767623537568.6
1678573896969358.2
2763207914252012.5
-1053862942035707.0
-1990379330153677.2
335971387907902.06
308001979011978.25
-1655686276685408.5
-1284481082461400.2
651480533392276.8
641839687304160.8
196911866489138.62
-222005619269383.0
-1394941647824062.8
318949086489404.94
398216382835124.5
-116677834913679.66
-381812757624764.06
785883000544169.5
-1212805657747579.5
2102735992070219.2
-2261351971033878.5
-495588612384840.9
1577260026460643.5
-3243323870663023.5
-1379919403818262.5
-934533578330798.0
-1136086229244819.5
-1850475480723652.0
-795857573215375.0
-1508699173565486.5
1147809487155900.8
44345607708224.31
-1410375599501890.0
910048808871272.9
1282220668619620.8
-1394659509997301.2
-1931224657494972.0
533479086931404.9
-619484815548198.1
-1074806317719372.6
1211623827228925.0
2533661948176835.0
-2008859400120304.8
1895083613540493.5
4235191013837210.0
490337297250852.2
1785013631987785.5
870596789626513.0
-1435459956905597.2
-2624367292707558.5
-1214185031077327.8
144134051028872.62
-997101129842079.6
-38305528074141.07
-1537874574301936.5
-1412248239605757.2
1304798648875523.8
2312875335813603.5
-450869257386428.3
-875335766073636.2
-1258830914084079.8
2185677404328529.5
2111491600996821.8
-1200542153242236.8
-3540292366273438.5
1819755788280392.0
2930273830796617.0
-4530302548814415.0
2516343809243256.5
1143703897549426.5
-3070230320180912.0
-1822422915996388.2
2597438523910159.0
422780744033594.25
-1116827105612518.2
-300232251021451.3
983184164691088.5
862800592279305.9
841885140732435.6
225377615224388.6
-1028868179020696.1
-3446511392021007.5
834158459177633.8
1897030154262801.5
-1077692995560818.0
-1902901009851842.2
-691600208569269.8
499810483963476.94
-1743256329581031.5
-1346923956220783.2
-514709148373239.0
-462521919585171.75
1385757692394828.2
-258403624505114.38
-49146273728914.55
-2570871462682074.5
-860744106047739.5
-309570102365956.44
-1994108131221264.0
2771958040602141.5
2902023434699986.5
719896027025157.1
-2816593629233324.5
-1154175957528240.2
997064956923245.9
-1358073468034.2112
-280403695434743.6
1642283766128256.8
1486523877952472.5
420679157090888.56
1502856232876467.8
-1380397109501542.5
-440038924940907.7
1751282716259061.2
-356060261191714.9
-560358530934196.94
-914520551980161.0
-877102743392975.4
189891929200567.97
2660644412221884.5
-1057342987792043.0
-215315754624578.72
1201647223527721.5
-2053629165695820.5
1645141648482958.5
207241073041674.34
-1007352019780706.8
-1209531134713099.5
613197283940990.4
1262909755834733.5
2431323086341936.0
555389273267082.56
-1475132075960275.5
921983008699696.8
2133110384170295.5
-1005121980015708.0
-536623768568094.0
-1476419472328483.5
-1183810956616244.8
239678689954998.7
-1256972770653344.0
1942837340553793.0
-1995557061844739.2
-653749152544495.5
2950433291229251.0
584701011529350.2
710356127353068.1
329891512911952.2
-1922632783047432.8
-254543338622257.2
157471246651050.44
2373862532738717.5
272484282617207.84
-215079573563262.1
1783642582735027.5
-139009640801539.61
-624040754530566.8
1197370119360913.5
550113139130657.4
-1054149141590591.1
-1668216012527897.2
3278530679893607.0
1421960028899214.8
-615690780652450.9
-4009687451191143.0
1804249798200655.2
3920182231046558.5
-5960399052059183.0
2285414677322200.5
3465131211401281.5
-846265831951753.0
-1573615599257677.2
1032422580065808.0
-787611897748070.6
-878554457968240.6
2104565237591539.0
1786895449979861.8
320116872579169.6
-160676917123279.44
623383432941465.8
-1625290349907451.5
-2448868058631430.0
-162625058771308.5
2359677891744871.0
1423039218179892.8
-455218703706324.3
-709666528594993.6
723299810084771.9
-728349048751288.4
-615229214265511.5
-929625570893254.8
-2061754034414776.0
-127366486622431.66
-238420540793551.56
309889306656397.44
-1181465111939541.8
377252373540043.2
-322316822720376.94
-258793580672642.2
4039356559944900.5
1549037887893051.5
-1638239403759172.5
-3882158144227303.0
-1399079090561846.0
71848986690478.08
-1163901911449740.2
-638728537931201.5
1715085438062554.0
2027368315347685.5
-172043895732806.38
422470460750476.2
-3595075969009378.5
-1261143692843895.5
721092265452647.4
281686027842018.2
6044034859058.493
-2251260618572055.5
-1529256213188836.5
2226271266385540.5
2636597384837671.5
-2073431940599946.2
-1571402444771239.2
-1566892505654331.0
-395973610116475.06
2460365665904671.5
-476968901955123.9
-2111945668931289.2
-1242504283458442.5
848160785765625.0
-416360716316459.06
-159278052023968.7
937641934341607.4
278335538460234.16
-959246756757070.0
584276028786131.2
-649760132173561.8
54160719555888.23
-3156450780743920.5
-1261967940916528.8
1681307310835904.0
-2459795880569365.5
1356058953349049.2
-1777972357551263.8
-1120923571451221.6
1790234365525430.0
747526750034890.1
-325896461834992.3
-1105216166718930.8
-2213980535619423.5
1574093116383624.5
-433765830746130.3
1545482804852507.0
872134165622501.1
-986395423551523.9
2693566677071929.5
483904900160028.2
-3239503812143037.0
-1398146828914115.8
704510596518360.8
-1674332679219718.8
-2025962286151173.0
2980030011157859.0
-198730510633250.06
459633649612530.56
-2289774748903815.5
1361790764630809.5
3885794983276229.5
-6568046698962434.0
724552631007651.0
4338415992752204.5
-560933691455491.4
-676009682949708.1
1003744656273175.0
-1927398593199863.0
-1690844353318955.8
-132798609116635.33
815551686205111.9
-100566257382399.1
-899086943250449.8
1349992252423479.5
837440644522520.4
441602719715808.44
-859862003441960.6
1191750053668725.5
2116287740466512.8
462017770728743.8
-1687242025171595.0
-578376601716319.8
-1320266691440790.5
1537358731316390.2
1325907006081571.5
-1138345906262350.2
596081266339562.2
1286073289117611.5
1176257215476217.8
-724124343562773.6
1177519906470444.5
208142334136190.6
-165265873716458.44
3568302776152654.5
22810714152096.516
-1661001178405292.0
-4316452111787271.0
-2465877438360693.0
-410885874931431.5
-548973842804075.5
14821382741878.197
1142651971759733.8
2194122794587965.2
1027028554282934.1
1145698964359747.5
-1066176121213312.6
1388926460332870.8
730442559276654.6
1050940217782182.8
427681543825547.1
-2579718618802644.0
-758487110554683.5
3531221751332436.0
2779509049206627.5
-1482833856216254.2
-4388326094018614.0
-3894886939799174.0
-582472187754947.5
630501133215076.1
-3067609290261280.0
-1449230293040565.0
632974778325375.9
-525792908609021.5
-1879150036962558.5
1199980798606062.5
2562019186639805.5
1380124615210267.0
-2269238515967013.5
-773380173079721.6
311144019562787.1
62714041842442.65
-3206679419658528.5
-845942646584908.4
2828621281611563.5
-579073192034151.4
2117214169610548.2
-1501994821769217.8
544701507983836.6
635543819043033.2
661359816290196.0
335642789023790.0
-2327875300479261.5
-2458978735253162.5
3147628839832425.0
948053669475758.1
167789160893444.8
749728694460102.6
373006712530980.3
2328829991779854.0
-869569242468564.6
-3002603673335778.0
-2109282190148317.2
-783069654221827.9
-3506633698235140.0
-2523145179153956.0
2031073774038661.5
-2106424686390970.5
765208805523931.8
642159585668172.2
1748486234682274.8
4109684299569246.5
-4144817599200551.0
-1487298892740426.2
1520960788192256.0
-1637351189840312.0
-503689624403198.44
2363683530499226.5
-1025517555573650.8
217932761741078.34
-1917241554975479.0
-4282114604636.1763
277254769113195.94
-2061107796372102.2
-435170185286132.44
812525551822352.8
1632380126925274.2
-1701748441676705.0
-430272988537409.7
944182099429079.5
375567242888286.0
-1473249522352346.5
-605300124045462.4
-3342280185244309.5
1208451655134164.5
1888351455218109.2
-2420430392701006.5
-1805961285793874.5
-747536189470612.5
2054905711272210.0
-162411931345414.3
649384880387936.2
1578121601508562.8
532037952415515.4
2842352428284927.5
-398435675007097.7
-614186352484306.5
-4470032887493298.5
-3160775577461948.5
406915820544089.44
68360488415463.83
242692885156962.72
48719098470414.42
132441702329498.0
1131221640935829.8
1017826111779691.2
716522321161895.4
2086861892701758.8
1034280137674943.1
1742760892590240.8
724277249783255.6
-1500664647924851.2
492063047236990.9
3037633022116695.0
1145844717530284.2
1577825513090802.2
-3704345405490184.5
-2891201016227192.5
520321357440040.8
-812171714332113.2
-3534099662515416.5
19350644630764.195
3125478117618263.0
98572128522327.44
-3261528375306728.0
1489195082134357.2
1717767649016682.5
1352435304810141.5
-1032982520466892.6
-259680372639017.84
1517842801452334.8
418053333125174.5
-666858514328328.6
-201338423325753.8
2047570976537968.8
-434948270590082.56
1048460226277484.4
-1620914120882088.8
1441855641694433.5
20365941275988.184
680889452232628.9
1379864861475923.8
-2615519936889877.5
-2648224339832990.0
1851755437142640.0
1788009112270261.8
352820113009408.9
-1205958043806604.5
656337617655915.8
2359539451573988.0
-2022902396864662.5
-1975378700302337.2
-1751244693666321.2
-329548205989133.9
-3022274225610786.0
-3250394925380802.5
2056239895656480.0
-1860797571061317.0
-748529714510696.1
847597302518547.5