# vtk DataFile Version 3.0
# correlation data
ASCII
DATASET STRUCTURED_GRID
DIMENSIONS 100 100 1
POINTS 10000 double
0.0000 0.0000 0.0000 1.9517 0.0000 0.0000 3.9033 0.0000 0.0000
5.8550 0.0000 0.0000 7.8066 0.0000 0.0000 9.7583 0.0000 0.0000
11.7099 0.0000 0.0000 13.6616 0.0000 0.0000 15.6132 0.0000 0.0000
17.5649 0.0000 0.0000 19.5166 0.0000 0.0000 21.4682 0.0000 0.0000
23.4199 0.0000 0.0000 25.3715 0.0000 0.0000 27.3232 0.0000 0.0000
29.2748 0.0000 0.0000 31.2265 0.0000 0.0000 33.1781 0.0000 0.0000
35.1298 0.0000 0.0000 37.0815 0.0000 0.0000 39.0331 0.0000 0.0000
40.9848 0.0000 0.0000 42.9364 0.0000 0.0000 44.8881 0.0000 0.0000
46.8397 0.0000 0.0000 48.7914 0.0000 0.0000 50.7430 0.0000 0.0000
52.6947 0.0000 0.0000 54.6464 0.0000 0.0000 56.5980 0.0000 0.0000
58.5497 0.0000 0.0000 60.5013 0.0000 0.0000 62.4530 0.0000 0.0000
64.4046 0.0000 0.0000 66.3563 0.0000 0.0000 68.3079 0.0000 0.0000
70.2596 0.0000 0.0000 72.2113 0.0000 0.0000 74.1629 0.0000 0.0000
76.1146 0.0000 0.0000 78.0662 0.0000 0.0000 80.0179 0.0000 0.0000
81.9695 0.0000 0.0000 83.9212 0.0000 0.0000 85.8728 0.0000 0.0000
87.8245 0.0000 0.0000 89.7762 0.0000 0.0000 91.7278 0.0000 0.0000
93.6795 0.0000 0.0000 95.6311 0.0000 0.0000 97.5828 0.0000 0.0000
99.5344 0.0000 0.0000 101.4861 0.0000 0.0000 103.4377 0.0000 0.0000
105.3894 0.0000 0.0000 107.3411 0.0000 0.0000 109.2927 0.0000 0.0000
111.2444 0.0000 0.0000 113.1960 0.0000 0.0000 115.1477 0.0000 0.0000
117.0993 0.0000 0.0000 119.0510 0.0000 0.0000 121.0026 0.0000 0.0000
122.9543 0.0000 0.0000 124.9060 0.0000 0.0000 126.8576 0.0000 0.0000
128.8093 0.0000 0.0000 130.7609 0.0000 0.0000 132.7126 0.0000 0.0000
134.6642 0.0000 0.0000 136.6159 0.0000 0.0000 138.5675 0.0000 0.0000
140.5192 0.0000 0.0000 142.4709 0.0000 0.0000 144.4225 0.0000 0.0000
146.3742 0.0000 0.0000 148.3258 0.0000 0.0000 150.2775 0.0000 0.0000
152.2291 0.0000 0.0000 154.1808 0.0000 0.0000 156.1324 0.0000 0.0000
158.0841 0.0000 0.0000 160.0358 0.0000 0.0000 161.9874 0.0000 0.0000
163.9391 0.0000 0.0000 165.8907 0.0000 0.0000 167.8424 0.0000 0.0000
169.7940 0.0000 0.0000 171.7457 0.0000 0.0000 173.6973 0.0000 0.0000
175.6490 0.0000 0.0000 177.6007 0.0000 0.0000 179.5523 0.0000 0.0000
181.5040 0.0000 0.0000 183.4556 0.0000 0.0000 185.4073 0.0000 0.0000
187.3589 0.0000 0.0000 189.3106 0.0000 0.0000 191.2622 0.0000 0.0000
193.2139 0.0000 0.0000 0.0000 1.7947 0.0000 1.9517 1.7947 0.0000
3.9033 1.7947 0.0000 5.8550 1.7947 0.0000 7.8066 1.7947 0.0000
9.7583 1.7947 0.0000 11.7099 1.7947 0.0000 13.6616 1.7947 0.0000
15.6132 1.7947 0.0000 17.5649 1.7947 0.0000 19.5166 1.7947 0.0000
21.4682 1.7947 0.0000 23.4199 1.7947 0.0000 25.3715 1.7947 0.0000
27.3232 1.7947 0.0000 29.2748 1.7947 0.0000 31.2265 1.7947 0.0000
33.1781 1.7947 0.0000 35.1298 1.7947 0.0000 37.0815 1.7947 0.0000
39.0331 1.7947 0.0000 40.9848 1.7947 0.0000 42.9364 1.7947 0.0000
44.8881 1.7947 0.0000 46.8397 1.7947 0.0000 48.7914 1.7947 0.0000
50.7430 1.7947 0.0000 52.6947 1.7947 0.0000 54.6464 1.7947 0.0000
56.5980 1.7947 0.0000 58.5497 1.7947 0.0000 60.5013 1.7947 0.0000
62.4530 1.7947 0.0000 64.4046 1.7947 0.0000 66.3563 1.7947 0.0000
68.3079 1.7947 0.0000 70.2596 1.7947 0.0000 72.2113 1.7947 0.0000
74.1629 1.7947 0.0000 76.1146 1.7947 0.0000 78.0662 1.7947 0.0000
80.0179 1.7947 0.0000 81.9695 1.7947 0.0000 83.9212 1.7947 0.0000
85.8728 1.7947 0.0000 87.8245 1.7947 0.0000 89.7762 1.7947 0.0000
91.7278 1.7947 0.0000 93.6795 1.7947 0.0000 95.6311 1.7947 0.0000
97.5828 1.7947 0.0000 99.5344 1.7947 0.0000 101.4861 1.7947 0.0000
103.4377 1.7947 0.0000 105.3894 1.7947 0.0000 107.3411 1.7947 0.0000
109.2927 1.7947 0.0000 111.2444 1.7947 0.0000 113.1960 1.7947 0.0000
115.1477 1.7947 0.0000 117.0993 1.7947 0.0000 119.0510 1.7947 0.0000
121.0026 1.7947 0.0000 122.9543 1.7947 0.0000 124.9060 1.7947 0.0000
126.8576 1.7947 0.0000 128.8093 1.7947 0.0000 130.7609 1.7947 0.0000
132.7126 1.7947 0.0000 134.6642 1.7947 0.0000 136.6159 1.7947 0.0000
138.5675 1.7947 0.0000 140.5192 1.7947 0.0000 142.4709 1.7947 0.0000
144.4225 1.7947 0.0000 146.3742 1.7947 0.0000 148.3258 1.7947 0.0000
150.2775 1.7947 0.0000 152.2291 1.7947 0.0000 154.1808 1.7947 0.0000
156.1324 1.7947 0.0000 158.0841 1.7947 0.0000 160.0358 1.7947 0.0000
161.9874 1.7947 0.0000 163.9391 1.7947 0.0000 165.8907 1.7947 0.0000
167.8424 1.7947 0.0000 169.7940 1.7947 0.0000 171.7457 1.7947 0.0000
173.6973 1.7947 0.0000 175.6490 1.7947 0.0000 177.6007 1.7947 0.0000
179.5523 1.7947 0.0000 181.5040 1.7947 0.0000 183.4556 1.7947 0.0000
185.4073 1.7947 0.0000 187.3589 1.7947 0.0000 189.3106 1.7947 0.0000
191.2622 1.7947 0.0000 193.2139 1.7947 0.0000 0.0000 3.5894 0.0000
1.9517 3.5894 0.0000 3.9033 3.5894 0.0000 5.8550 3.5894 0.0000
7.8066 3.5894 0.0000 9.7583 3.5894 0.0000 11.7099 3.5894 0.0000
13.6616 3.5894 0.0000 15.6132 3.5894 0.0000 17.5649 3.5894 0.0000
19.5166 3.5894 0.0000 21.4682 3.5894 0.0000 23.4199 3.5894 0.0000
25.3715 3.5894 0.0000 27.3232 3.5894 0.0000 29.2748 3.5894 0.0000
31.2265 3.5894 0.0000 33.1781 3.5894 0.0000 35.1298 3.5894 0.0000
37.0815 3.5894 0.0000 39.0331 3.5894 0.0000 40.9848 3.5894 0.0000
42.9364 3.5894 0.0000 44.8881 3.5894 0.0000 46.8397 3.5894 0.0000
48.7914 3.5894 0.0000 50.7430 3.5894 0.0000 52.6947 3.5894 0.0000
54.6464 3.5894 0.0000 56.5980 3.5894 0.0000 58.5497 3.5894 0.0000
60.5013 3.5894 0.0000 62.4530 3.5894 0.0000 64.4046 3.5894 0.0000
66.3563 3.5894 0.0000 68.3079 3.5894 0.0000 70.2596 3.5894 0.0000
72.2113 3.5894 0.0000 74.1629 3.5894 0.0000 76.1146 3.5894 0.0000
78.0662 3.5894 0.0000 80.0179 3.5894 0.0000 81.9695 3.5894 0.0000
83.9212 3.5894 0.0000 85.8728 3.5894 0.0000 87.8245 3.5894 0.0000
89.7762 3.5894 0.0000 91.7278 3.5894 0.0000 93.6795 3.5894 0.0000
95.6311 3.5894 0.0000 97.5828 3.5894 0.0000 99.5344 3.5894 0.0000
101.4861 3.5894 0.0000 103.4377 3.5894 0.0000 105.3894 3.5894 0.0000
107.3411 3.5894 0.0000 109.2927 3.5894 0.0000 111.2444 3.5894 0.0000
113.1960 3.5894 0.0000 115.1477 3.5894 0.0000 117.0993 3.5894 0.0000
119.0510 3.5894 0.0000 121.0026 3.5894 0.0000 122.9543 3.5894 0.0000
124.9060 3.5894 0.0000 126.8576 3.5894 0.0000 128.8093 3.5894 0.0000
130.7609 3.5894 0.0000 132.7126 3.5894 0.0000 134.6642 3.5894 0.0000
136.6159 3.5894 0.0000 138.5675 3.5894 0.0000 140.5192 3.5894 0.0000
142.4709 3.5894 0.0000 144.4225 3.5894 0.0000 146.3742 3.5894 0.0000
148.3258 3.5894 0.0000 150.2775 3.5894 0.0000 152.2291 3.5894 0.0000
154.1808 3.5894 0.0000 156.1324 3.5894 0.0000 158.0841 3.5894 0.0000
160.0358 3.5894 0.0000 161.9874 3.5894 0.0000 163.9391 3.5894 0.0000
165.8907 3.5894 0.0000 167.8424 3.5894 0.0000 169.7940 3.5894 0.0000
171.7457 3.5894 0.0000 173.6973 3.5894 0.0000 175.6490 3.5894 0.0000
177.6007 3.5894 0.0000 179.5523 3.5894 0.0000 181.5040 3.5894 0.0000
183.4556 3.5894 0.0000 185.4073 3.5894 0.0000 187.3589 3.5894 0.0000
189.3106 3.5894 0.0000 191.2622 3.5894 0.0000 193.2139 3.5894 0.0000
0.0000 5.3842 0.0000 1.9517 5.3842 0.0000 3.9033 5.3842 0.0000
5.8550 5.3842 0.0000 7.8066 5.3842 0.0000 9.7583 5.3842 0.0000
11.7099 5.3842 0.0000 13.6616 5.3842 0.0000 15.6132 5.3842 0.0000
17.5649 5.3842 0.0000 19.5166 5.3842 0.0000 21.4682 5.3842 0.0000
23.4199 5.3842 0.0000 25.3715 5.3842 0.0000 27.3232 5.3842 0.0000
29.2748 5.3842 0.0000 31.2265 5.3842 0.0000 33.1781 5.3842 0.0000
35.1298 5.3842 0.0000 37.0815 5.3842 0.0000 39.0331 5.3842 0.0000
40.9848 5.3842 0.0000 42.9364 5.3842 0.0000 44.8881 5.3842 0.0000
46.8397 5.3842 0.0000 48.7914 5.3842 0.0000 50.7430 5.3842 0.0000
52.6947 5.3842 0.0000 54.6464 5.3842 0.0000 56.5980 5.3842 0.0000
58.5497 5.3842 0.0000 60.5013 5.3842 0.0000 62.4530 5.3842 0.0000
64.4046 5.3842 0.0000 66.3563 5.3842 0.0000 68.3079 5.3842 0.0000
70.2596 5.3842 0.0000 72.2113 5.3842 0.0000 74.1629 5.3842 0.0000
76.1146 5.3842 0.0000 78.0662 5.3842 0.0000 80.0179 5.3842 0.0000
81.9695 5.3842 0.0000 83.9212 5.3842 0.0000 85.8728 5.3842 0.0000
87.8245 5.3842 0.0000 89.7762 5.3842 0.0000 91.7278 5.3842 0.0000
93.6795 5.3842 0.0000 95.6311 5.3842 0.0000 97.5828 5.3842 0.0000
99.5344 5.3842 0.0000 101.4861 5.3842 0.0000 103.4377 5.3842 0.0000
105.3894 5.3842 0.0000 107.3411 5.3842 0.0000 109.2927 5.3842 0.0000
111.2444 5.3842 0.0000 113.1960 5.3842 0.0000 115.1477 5.3842 0.0000
117.0993 5.3842 0.0000 119.0510 5.3842 0.0000 121.0026 5.3842 0.0000
122.9543 5.3842 0.0000 124.9060 5.3842 0.0000 126.8576 5.3842 0.0000
128.8093 5.3842 0.0000 130.7609 5.3842 0.0000 132.7126 5.3842 0.0000
134.6642 5.3842 0.0000 136.6159 5.3842 0.0000 138.5675 5.3842 0.0000
140.5192 5.3842 0.0000 142.4709 5.3842 0.0000 144.4225 5.3842 0.0000
146.3742 5.3842 0.0000 148.3258 5.3842 0.0000 150.2775 5.3842 0.0000
152.2291 5.3842 0.0000 154.1808 5.3842 0.0000 156.1324 5.3842 0.0000
158.0841 5.3842 0.0000 160.0358 5.3842 0.0000 161.9874 5.3842 0.0000
163.9391 5.3842 0.0000 165.8907 5.3842 0.0000 167.8424 5.3842 0.0000
169.7940 5.3842 0.0000 171.7457 5.3842 0.0000 173.6973 5.3842 0.0000
175.6490 5.3842 0.0000 177.6007 5.3842 0.0000 179.5523 5.3842 0.0000
181.5040 5.3842 0.0000 183.4556 5.3842 0.0000 185.4073 5.3842 0.0000
187.3589 5.3842 0.0000 189.3106 5.3842 0.0000 191.2622 5.3842 0.0000
193.2139 5.3842 0.0000 0.0000 7.1789 0.0000 1.9517 7.1789 0.0000
3.9033 7.1789 0.0000 5.8550 7.1789 0.0000 7.8066 7.1789 0.0000
9.7583 7.1789 0.0000 11.7099 7.1789 0.0000 13.6616 7.1789 0.0000
15.6132 7.1789 0.0000 17.5649 7.1789 0.0000 19.5166 7.1789 0.0000
21.4682 7.1789 0.0000 23.4199 7.1789 0.0000 25.3715 7.1789 0.0000
27.3232 7.1789 0.0000 29.2748 7.1789 0.0000 31.2265 7.1789 0.0000
33.1781 7.1789 0.0000 35.1298 7.1789 0.0000 37.0815 7.1789 0.0000
39.0331 7.1789 0.0000 40.9848 7.1789 0.0000 42.9364 7.1789 0.0000
44.8881 7.1789 0.0000 46.8397 7.1789 0.0000 48.7914 7.1789 0.0000
50.7430 7.1789 0.0000 52.6947 7.1789 0.0000 54.6464 7.1789 0.0000
56.5980 7.1789 0.0000 58.5497 7.1789 0.0000 60.5013 7.1789 0.0000
62.4530 7.1789 0.0000 64.4046 7.1789 0.0000 66.3563 7.1789 0.0000
68.3079 7.1789 0.0000 70.2596 7.1789 0.0000 72.2113 7.1789 0.0000
74.1629 7.1789 0.0000 76.1146 7.1789 0.0000 78.0662 7.1789 0.0000
[...]
POINT_DATA 10000
SCALARS correlation_coefficient double
LOOKUP_TABLE default
189968253193695.12
199524972220653.56
154623135171610.4
218117510401027.1
204497352632540.25
147567898461263.4
81320937837965.9
71631135352791.11
-1771813523784.395
-79211435949334.44
-100718620608266.92
-79112399385861.19
-82479858876994.62
-189147479868846.75
-241073914063966.4
-209315506256862.6
-189014009629020.9
-164281748869947.53
-40699262063078.86
3926270210580.311
-18464193495469.125
-4860971311206.465
-11162980419367.6
-14076953269436.54
-6684556396180.584
78169378576037.97
74063263773777.19
26704187572610.344
-39614694775722.65
-93804227475919.19
-66312628498313.32
45013351770846.33
73990009881897.06
100228470633715.36
161958288918909.7
100241972318619.05
-42988658909459.05
-222522310544680.03
-137634165821383.58
48467879648960.1
81198124497611.19
41122592907835.445
33318774173050.55
-45743037526558.38
-63829251872125.78
-124956909277068.88
-108463761771930.56
-13110782203731.535
37824517153239.51
-76881078206104.48
-134746035321311.27
-76881078206105.61
37824517153239.5
-13110782203731.555
-108463761771930.16
-124956909277069.38
-63829251872125.4
-45743037526559.07
33318774173050.715
41122592907834.89
81198124497610.97
48467879648959.73
-137634165821383.88
-222522310544679.8
-42988658909459.31
100241972318619.8
161958288918909.84
100228470633715.12
73990009881896.47
45013351770845.85
-66312628498313.66
-93804227475918.72
-39614694775722.36
26704187572609.65
74063263773777.23
78169378576038.3
-6684556396180.482
-14076953269436.914
-11162980419367.91
-4860971311206.23
-18464193495469.402
3926270210580.5625
-40699262063079.016
-164281748869946.94
-189014009629021.12
-209315506256862.28
-241073914063966.44
-189147479868846.44
-82479858876994.25
-79112399385861.48
-100718620608267.64
-79211435949334.45
-1771813523784.905
71631135352790.95
81320937837966.17
147567898461262.94
204497352632540.47
218117510401026.84
154623135171610.03
199524972220654.0
40667590705808.914
36478190213765.28
-23578564984559.66
-91137755090807.38
-155662831692064.7
-145362372093253.78
-84567951909655.06
-7073412025725.57
51126855851656.86
100164887825428.72
106767700621680.94
108848573422494.94
39101116305912.3
-66735192462264.34
-65742491293363.46
792137807231.7169
57741099425611.31
60660354411166.32
56862435588115.79
85672455710802.48
43139245876050.37
-56024032106803.37
-59939724070295.29
20078454830281.066
120864041402621.92
169198015395758.53
85241197367041.58
9427816417944.227
-11263902121311.797
-46721393687719.38
-32781460788632.44
-9693677852553.797
51374579447032.93
-33862734800228.65
-91019382476389.95
-106801899164703.95
-65981924514351.73
46440724028295.99
220380148978884.97
204303220915915.4
45386981648683.7
-45312890783137.87
-80411464487515.61
-72882321033879.81
61313972901924.13
37405445425082.67
84277863990490.19
80372724467668.98
-86283952662173.1
-320058217377824.44
-256830996610444.2
-121079677480644.81
37927629254418.99
71971909843612.73
51191619851138.09
2424280155700.425
4247184347159.835
97929640029160.92
175850704806459.66
120169251851144.7
8202589441935.582
-122122168445305.06
-177102707913036.94
31596183251660.89
238170194539412.9
275422116167879.97
187030292371973.9
51980586337269.84
-48829708991133.07
20395520749389.34
26174185763230.094
13579337402104.727
42668925484650.3
126214350404962.42
133340640081002.88
4483256941587.834
-64122949501872.47
-45274627862008.46
-36289267681146.12
-53988587503161.36
-5591625048702.08
21923496241944.137
-63932054181016.34
-167849377103841.75
-106969298097499.72
-52780499837391.64
-83057766165645.02
-166479906814840.88
-161394542071860.47
-223923243575289.97
-256838575449280.38
-127635628829803.1
37061581398808.38
106892917437878.23
110285756467101.94
225310811394139.38
242660897530531.62
52256081772760.84
-38027054024803.52
-10398899158103.24
-83397989013284.62
-98291890157233.92
-128434639279407.12
-86311093379343.89
-37387113995516.266
-72286988226557.81
-148485386979341.72
-107361226024676.1
-27854387071162.664
21207979085619.363
73476603530808.11
103617025908475.77
57744587616404.66
68691203590285.88
224622345377128.0
255482116286239.8
230726798960019.84
165936197343841.44
112622268108645.64
29087396463457.703
-80284986726863.22
-80349905518226.27
6812020087967.997
-56877253430422.54
-99191996701932.27
-37297755231959.24
-39847097820386.74
-47249336281958.26
6301886333860.057
42109019782306.914
20207643700957.234
-548148448204.04626
19114911095072.598
-132423685295476.05
-268018367603604.84
-144192832935683.6
18365174874504.547
55085851348461.82
-43424767214637.4
-103032014917061.0
-127602701879096.78
-109637170679905.84
-127921359626579.98
-111544945436006.6
-16936670953359.824
16228744089974.137
102673445261756.12
105004165837868.02
-14012191690008.596
-125093079516873.23
-95948682520311.7
38296399343007.375
167220110205593.4
211489742704963.2
120599706085148.77
-46543464954647.16
-165874068473722.6
-161529636398035.2
-145126607432815.97
-185547506455962.4
-286614980202810.4
-312354101197967.06
-107007043710361.48
46379048066250.35
115517629775280.56
139478007190240.31
6390374690851.598
-124447501249815.1
-80834079218640.23
68845397883940.86
124236337795081.0
82399301576345.58
11065502821919.273
-22641837178077.637
-63084260102219.79
-161579733925775.88
-175785765737760.72
-141451739522874.38
-220778577496020.72
-216929787890809.6
-131749898880072.66
-127134531789899.9
-148588758007310.6
22730739112409.43
82270820646713.11
59242159981871.46
81105042618990.39
57678467215709.48
59015692007310.86
28593830679982.566
-5077666433194.055
8373086291207.455
80915410846485.03
37583925247183.03
18993393670935.934
-81638416527068.17
-157586934157753.53
-256195443710109.6
-203542835344594.0
-144771142788141.62
-153536567261439.3
-220030091062514.16
-199242862423346.28
-85399410488828.31
20194913235272.64
43666432776828.49
1608147860150.315
-26126097401128.703
-37944577152349.27
4132335724512.0864
145803735082651.2
109035732784909.36
54114270099723.21
-15992914441494.74
-79805609717928.42
-55969950081578.09
-12423005646100.447
68817775758830.65
16334850338171.252
-129131211764431.9
-156460014412085.7
77268408477260.62
155672900311361.6
37991355600645.97
-68297721357330.92
-24487213690390.094
-21302183407899.816
-64698184976605.81
-118513704283456.16
-84947412835136.52
-107052268979103.36
-87632027869725.1
-186439056677278.12
-243483820432771.88
-160514230690869.6
26565056832179.55
103419260134832.98
-74362297478889.77
-125745625452430.22
-35913704828927.01
33078728650692.28
24412434860637.68
32751981895604.195
311988016600.02
-8827775172404.857
5791445732637.642
-15537157770989.998
7217705782063.815
110044575129281.44
182780846530523.38
240251370881068.44
277505843363720.7
72692518375641.1
-90338238208617.77
-70527768976880.33
26852592693781.8
41186774413685.72
-32092768253669.32
-162107462531528.8
-183045033637990.88
-111921149579173.86
-19581736137713.38
101545988243000.56
45461949453941.9
27216877414647.29
694251878188.8582
-10803307473981.363
54038057337617.26
182498362884550.44
126797391036482.05
-28912246687464.1
-154577056742479.47
-176959096123448.25
-158115056555410.1
-108860046499235.36
-9390799662696.82
108139991264462.52
76207756055766.06
-4917036853622.75
19850647279406.977
-23775502312492.28
-80403598459859.56
20419510543270.54
60386262097146.44
-16562561621981.06
-22264324679328.586
99458671439839.88
188193815178116.4
98981199962607.48
30126960191993.05
50687127384048.94
48751718248266.91
73450450770867.72
-1847362857593.6638
-31316552736520.64
-66058869427624.49
-331098899792.59375
-47765914450682.87
-80010594591040.08
-76115078153229.61
-6286667102391.79
33360452401696.21
92869098659405.72
91622092509880.4
75845026811971.98
81574158922149.39
45759812752928.6
-3335348497772.055
-32350025031476.88
44915780914013.87
29620262213605.12
-61071936919686.18
-5652673361250.63
-41483036765495.66
-205612480224895.2
-108029154615447.22
-96378664162583.84
-97577908904781.28
-66916269770527.11
10269180131500.092
103626207033218.64
122882164056094.2
-21746362649461.12
-63362566912974.6
-35035368915287.1
8453898012030.58
54320701901903.01
-35190973339096.5
-150086115919318.1
-167364659310865.88
-158857711036018.4
-110081384794944.31
-30944523051030.094
426652700081.75
84472665649722.12
49519764430189.0
2645625052072.5376
-125005371955656.88
41623504168521.16
122915555855705.05
127647706307291.72
120922765776660.58
65017416683345.92
-70179580742958.23
-139533170823794.19
-69796316365508.16
-78034567136912.92
-158037787795591.62
-151724996284744.84
-60963439320352.9
93305041699898.0
90211468526036.86
-176043301948870.28
-317388649419576.5
-217555103865430.28
-27242880510344.55
146341648339834.06
182887740219492.1
161609023101020.6
122059827399150.14
77595748028609.52
107608601093129.6
105219993941276.88
-18949782933059.406
-13417896153220.26
-72825676602610.38
-14429260164527.676
119664830872063.62
78117592029966.92
-50395182303082.76
-132522415105449.22
-120433664745200.4
-78899646577935.34
-31970063653659.453
82181863712160.22
186091448894491.88
191604052041079.97
135173623262650.14
128408905729068.4
84352546976165.95
12797160325924.955
-12337999783312.322
-15045578995694.27
-144389096883519.47
-80132408383756.17
56220324913132.91
135467566902397.6
90126348250939.31
-29077493123033.316
-35802112367348.56
49330307741932.93
24678973603034.754
-109007086381792.14
-95393512546001.08
31861928885330.54
152651420538557.6
157839769582031.72
41500672868849.71
14914857707465.22
51806748954988.82
12645665389703.432
81296038482703.55
80419904056218.94
-1390157773103.04
-72843397154375.52
-37047758775445.17
-61391821877028.7
-29302941148972.715
-14071294127849.65
-19550181866680.074
-146785263520995.66
-178153448214168.22
-56888066400436.09
-29607323044248.91
-40329687332681.67
-18294793895826.88
3114953366330.8887
-9748258258201.557
78878568799876.27
132465245251324.3
82581173436821.58
-30332351623739.9
-59524493056221.14
51785158463035.52
94438111701289.62
66601416014882.47
13424522409517.73
-85019483628107.9
-8055547678799.732
18060466989185.492
-25845918037690.64
-61473183902043.04
162851976983119.28
196348307793185.9
171528251838592.03
71205160700447.83
-70167763365011.63
-92773699211596.64
-20818163867014.145
-23433562505446.414
-124152141161743.44
-142089298415554.2
-144925487463157.38
-88012269682511.69
29035768362944.76
52555225050928.94
20782720939867.984
-113248211021533.95
-207540030988350.0
-176924332991674.72
-102699164595580.0
-205489712534964.0
-329168218782352.25
-313224781465755.8
-147765716397969.97
-10828959407448.293
77340948399034.78
2606158398669.514
-82795205946152.72
-184002962983433.56
-207026027398823.25
-181101255992468.75
-143056840683990.88
-134283190905126.19
-143657061449447.53
-177440683317013.6
-163842489535854.22
-178221124377031.8
-155431013988360.88
-91833095176739.84
-65685772454989.25
-6208939944298.468
33587870100730.44
61418668175527.18
72762106715145.69
32879945490103.58
-15452610653530.58
-2648466956326.866
87726982932188.19
185453518859761.6
155345450046471.97
81217296446051.44
-30389003206377.055
-81396354799119.12
-18353504138066.734
46889148605352.71
49265091932668.79
-54762313520243.98
-139868599856327.64
-90664697759179.48
1113336612888.9226
-125635709061232.36
-196810678791020.38
18634440290521.1
154729469776311.34
138057404399788.62
32032182691710.11
-11176461262261.643
24490104134925.42
11630322413662.275
44782317481567.78
4940601016522.405
-111417191605990.4
-141357960306409.44
-69110000866034.68
-19545719680953.3
-6482330836002.157
23204078933090.797
-3147534677608.97
-28664691467762.61
21606644835983.82
97035069453977.52
6237264091100.128
-6215450279560.574
71765543773071.48
130306581869946.88
169093097908211.84
91651206393669.88
24313586314258.613
-17872143115840.305
-131286670834400.38
-101375669975274.31
-29623645445266.33
-70944715884916.5
-149118267329229.22
-194646031037160.8
-211431866180449.47
-82353239899900.73
127878803816206.27
137787002551943.2
27961984921744.414
-18006392159807.137
-4342482756459.136
8944184233614.102
-12117923389427.705
87428319029667.9
97789654096416.78
214279453305392.28
186349213808110.72
2839034894560.0874
-142428826706232.4
-166006927780003.1
-63896266218294.02
46326567259962.47
25553713213922.9
-116752034893885.77
-111828148147086.22
-36667880363008.16
11505258880579.455
-18958011694819.83
-85637274322153.23
-173733059236823.12
-102428010361490.28
-2467431844084.91
27488657761010.45
-25357188394740.13
-149094266806831.3
-320486253298587.2
-367230192752950.3
-280483251819640.47
-94738903438965.69
-10149732388118.918
-53024694206010.29
-55594306942860.41
-129743675157559.27
-118747085779062.78
4392445161468.435
30093232317449.39
25384135995051.98
44789373077055.97
-79434002358563.1
-113836409119192.36
28418556215941.37
57610767325669.8
-7088138219951.369
-56969573772607.94
-74726833175058.84
42045406083847.05
240283296647493.56
303165536255893.7
139954696981765.12
-103166750325053.66
-136730025375947.02
-38348254596591.23
60271275172593.99
110558574196945.77
66487178444535.74
-48832547775603.97
-23195744236889.105
65945102512058.72
4571732744806.482
-127553042920348.69
-63294609407364.34
130883543477291.6
36533465855738.07
-140383755165668.69
-161642398161834.94
-79013874796052.31
-81687063942017.44
-72598634944740.84
66490607827771.89
-71130688911568.73
-60980762338686.27
74430919569491.34
207237282137447.44
128894184971843.9
-6729930602809.293
-34321014019243.82
20373557422815.81
77064831663056.8
149511474302273.12
161710239337116.44
37928030564046.77
122745832319461.48
249420661461048.7
231568336691022.12
91710892779367.62
-70419788896788.45
-175964822156774.8
-272074426484396.62
-223688482615441.3
-62487625135396.33
41403766975997.29
30026894987273.21
48968539016469.98
82041797533727.95
80560679846705.5
127084704620431.1
34962504198105.3
-73928493044978.55
-18187741491433.086
35083433666827.145
-28882513697759.25
-72054782658329.8
-55585407796657.28
24478005389531.19
145771682955790.88
308780198295472.1
206385471968870.72
48374707000377.48
-64901827091601.1
-44961086365632.33
-32072480879365.523
-43726463409755.4
-232465301238869.0
-257649072913275.4
-242199460807592.4
-56803646604341.95
70868759460265.05
100576294192604.48
225985007414151.28
120655940815834.64
196308000528598.44
283918494607129.75
168033182199266.8
-54846777567437.84
-90152078919702.44
-45197243438711.57
67242979171439.2
91535395328637.73
84654414176995.4
82983103390714.56
55436728653995.14
48443543233998.26
101757359045369.02
148445914293841.8
141706523871268.03
75202518830999.95
-55410881329449.92
-172932736877593.94
-207995886834511.84
-97055550504690.69
49210540283108.85
-17725453072007.3
-156644232662288.38
-123786778403671.64
-81060379006037.94
-22014776405189.016
-21093074669938.344
-178962173957368.78
-279417667333764.38
-214937117586330.4
-45678714627573.41
95025179469869.19
136562872927983.6
63450285058584.77
-117725832410308.6
-184317080450268.0
-109342406865258.23
-64560348481033.72
-19547294176525.84
102009600080218.42
181295992118117.6
135801249811850.95
-104051872876058.48
-151074457048823.6
-130025753589795.22
-105031390413259.28
-75211779929544.28
60759891808102.24
9118723428813.41
-58135581366699.77
18075813672817.473
95187449927560.92
38820497953152.41
-130864869811491.95
-103696387591156.64
72083126182470.52
132811175617834.7
147568589199988.75
147981022551649.4
60094065676799.2
13844509504268.178
66378324172439.74
85586243776844.64
-80521236682540.31
-175956314649313.5
-80248639099565.06
31956753976210.125
75772774174845.66
159510718847134.5
229481513250670.97
178629355884509.66
144149381450970.38
182886314409740.25
218266100799474.75
196369048354949.16
39065467715263.76
-129934373103051.34
-151060066835622.5
11873119911718.99
145987996083619.66
131969383542314.88
97710280178596.44
27566515181018.605
-92869342754684.12
-93987917429823.52
-47538130904965.23
-97977849031573.86
-84059945983213.05
-45113687062448.17
-15088298110129.63
-39151625714273.875
-84510565850894.17
-133135945277626.05
-70802560783976.6
-164901149185888.7
-247480024060823.03
-159396357471129.53
-23910109885805.895
177966784475709.47
87903289290449.0
89638491987970.98
46636039363229.44
-49406836331147.96
-40792711139128.47
164363228007885.56
203294627936375.3
153725076763653.8
17454823114785.85
-91335589341736.77
-130814290143985.22
-112593771715090.8
41615246914463.79
47215239233558.76
54617950737729.01
-33906432276183.113
-141297697459340.03
-165363485692302.22
-151854660074405.8
14531853224978.7
167284223835540.7
47222701182836.21
-167051632451274.3
-181618480725309.72
-87365396767823.0
-48186106004792.12
-124304666611565.0
-223994911855120.75
-254117469068441.2
-79265351483741.06
13710956986328.074
32552725376372.56
119439400212749.77
90714162912531.52
8810871369501.12
-48067937853779.06
-13996653800000.814
-62437039171766.24
-138317710934551.28
32181508484576.35
225035978504103.3
176961508904352.44
29951305567387.664
-61464437975403.05
4982866586038.763
57435435365156.69
68701858345185.33
104085304193844.72
152299754800097.9
-49766948881277.75
-19296500560436.844
-67609304945240.6
-125619302150620.95
-207648447145340.9
-234585226988183.38
-126216812635519.34
53803324216002.28
51664595775002.28
11144192183884.12
-59902287737602.83
-191120247536409.0
-137377591623611.56
-51591275792348.75
-85663679463253.19
-156057835923336.12
12584643682704.324
226061908632820.3
299405999518366.2
356968227379086.0
283083269421137.2
122688457623094.98
65462030290611.72
76045915011876.4
-2041017806044.1443
-130805722080539.58
-175270435256301.12
-192784150699286.38
-108383341271538.58
44134893665126.484
97513063389233.9
169841206613083.03
74788970849044.62
-39085113896918.19
-131491978139327.95
-212631209012885.2
-173763064555253.97
-238671159669844.2
-213409856265797.47
-176675286914048.25
-67905996466781.73
-3736209834827.194
-178383620522.83624
-19530876033071.67
33265469695961.84
90692382082698.6
17461872997672.846
-9526066098117.152
147412380130343.06
279655578735131.6
75888203112092.23
-53780351959093.13
-79448793867564.9
-199883064634916.88
-206267063909012.53
-74193854859894.88
-42668250949977.49
-65732250174247.64
-170759135191016.6
-151507033638979.22
9572402259854.555
159737303522761.47
128272647506471.56
96076351387401.3
-57865006526973.33
-133188109539707.4
-95072685427864.48
-56497370348569.24
-26694194959551.16
7877817806445.968
203675976491547.62
209194610490639.72
70991853604528.94
17697208052268.844
131390995358273.64
166803684569684.22
110356447067413.6
48971881324013.49
-22250395494731.07
-72915366810852.05
4912103225721.24
-21669561210897.46
-64721085666537.36
-103227661488189.55
-214627548801080.9
-151550088361386.5
-1757090323642.0803
22305322143152.82
26663871764057.06
36565788490349.47
70620162348639.42
4061026340490.5195
-92163747841633.88
-130216525295723.02
-58215202280549.39
-33498333316949.68
75461111439098.06
178655752504424.8
75555181246639.77
-82480575139568.64
-49048060007357.74
487101311291.9775
6781174161444.935
94087876150804.94
201863923570834.84
131959391036442.62
-53103281515380.7
-167685664715605.2
-126996278145483.44
-131023052969783.12
-186384879136705.72
-132374979655763.9
-46026169879571.56
-92108451505414.72
-205051640513620.9
-221557425526377.03
-104846237052402.72
-61121985879815.65
-111023623928478.22
-97133311694855.22
-77487023150267.52
-110230263989753.62
-34097881750144.32
-6080121923687.522
-48803026843168.59
-67573752330849.8
-104276098687076.64
-51448206137337.48
-18382786456333.965
-23425659977572.85
-28005391539179.773
-32411877200782.625
-225112353898264.1
-232059845059080.4
-178688889019002.1
-44547523169223.78
41249338358343.84
-27299012060953.586
-79652077749950.27
-5790219126552.518
128125850919341.95
70712649145746.62
-70630532213963.16
-67635354054512.26
78964769722354.28
100113219671193.02
94957251840093.1
81459333501448.7
-10415434371905.623
-128872024149307.94
-294117533140004.3
-218334751316925.0
-22941249421727.297
58463513334478.54
58083151085928.06
14726295319637.76
-139331003509892.92